 Entering Gaussian System, Link 0=g16
 Input=benzen1.com
 Output=benzen1.log
 Initial command:
 /usr/local/packages/gaussian/g16/l1.exe "/scratch/Gau-29603.inp" -scrdir="/scratch/"
 Entering Link 1 = /usr/local/packages/gaussian/g16/l1.exe PID=     29604.
  
 Copyright (c) 1988,1990,1992,1993,1995,1998,2003,2009,2016,
            Gaussian, Inc.  All Rights Reserved.
  
 This is part of the Gaussian(R) 16 program.  It is based on
 the Gaussian(R) 09 system (copyright 2009, Gaussian, Inc.),
 the Gaussian(R) 03 system (copyright 2003, Gaussian, Inc.),
 the Gaussian(R) 98 system (copyright 1998, Gaussian, Inc.),
 the Gaussian(R) 94 system (copyright 1995, Gaussian, Inc.),
 the Gaussian 92(TM) system (copyright 1992, Gaussian, Inc.),
 the Gaussian 90(TM) system (copyright 1990, Gaussian, Inc.),
 the Gaussian 88(TM) system (copyright 1988, Gaussian, Inc.),
 the Gaussian 86(TM) system (copyright 1986, Carnegie Mellon
 University), and the Gaussian 82(TM) system (copyright 1983,
 Carnegie Mellon University). Gaussian is a federally registered
 trademark of Gaussian, Inc.
  
 This software contains proprietary and confidential information,
 including trade secrets, belonging to Gaussian, Inc.
  
 This software is provided under written license and may be
 used, copied, transmitted, or stored only in accord with that
 written license.
  
 The following legend is applicable only to US Government
 contracts under FAR:
  
                    RESTRICTED RIGHTS LEGEND
  
 Use, reproduction and disclosure by the US Government is
 subject to restrictions as set forth in subparagraphs (a)
 and (c) of the Commercial Computer Software - Restricted
 Rights clause in FAR 52.227-19.
  
 Gaussian, Inc.
 340 Quinnipiac St., Bldg. 40, Wallingford CT 06492
  
  
 ---------------------------------------------------------------
 Warning -- This program may not be used in any manner that
 competes with the business of Gaussian, Inc. or will provide
 assistance to any competitor of Gaussian, Inc.  The licensee
 of this program is prohibited from giving any competitor of
 Gaussian, Inc. access to this program.  By using this program,
 the user acknowledges that Gaussian, Inc. is engaged in the
 business of creating and licensing software in the field of
 computational chemistry and represents and warrants to the
 licensee that it is not a competitor of Gaussian, Inc. and that
 it will not use this program in any manner prohibited above.
 ---------------------------------------------------------------
  

 Cite this work as:
 Gaussian 16, Revision A.03,
 M. J. Frisch, G. W. Trucks, H. B. Schlegel, G. E. Scuseria, 
 M. A. Robb, J. R. Cheeseman, G. Scalmani, V. Barone, 
 G. A. Petersson, H. Nakatsuji, X. Li, M. Caricato, A. V. Marenich, 
 J. Bloino, B. G. Janesko, R. Gomperts, B. Mennucci, H. P. Hratchian, 
 J. V. Ortiz, A. F. Izmaylov, J. L. Sonnenberg, D. Williams-Young, 
 F. Ding, F. Lipparini, F. Egidi, J. Goings, B. Peng, A. Petrone, 
 T. Henderson, D. Ranasinghe, V. G. Zakrzewski, J. Gao, N. Rega, 
 G. Zheng, W. Liang, M. Hada, M. Ehara, K. Toyota, R. Fukuda, 
 J. Hasegawa, M. Ishida, T. Nakajima, Y. Honda, O. Kitao, H. Nakai, 
 T. Vreven, K. Throssell, J. A. Montgomery, Jr., J. E. Peralta, 
 F. Ogliaro, M. J. Bearpark, J. J. Heyd, E. N. Brothers, K. N. Kudin, 
 V. N. Staroverov, T. A. Keith, R. Kobayashi, J. Normand, 
 K. Raghavachari, A. P. Rendell, J. C. Burant, S. S. Iyengar, 
 J. Tomasi, M. Cossi, J. M. Millam, M. Klene, C. Adamo, R. Cammi, 
 J. W. Ochterski, R. L. Martin, K. Morokuma, O. Farkas, 
 J. B. Foresman, and D. J. Fox, Gaussian, Inc., Wallingford CT, 2016.
 
 ******************************************
 Gaussian 16:  ES64L-G16RevA.03 25-Dec-2016
                29-Oct-2020 
 ******************************************
 --------------------------------
 # RHF/6-31G(d) Pop=full Opt Freq
 --------------------------------
 1/18=20,19=15,38=1/1,3;
 2/9=110,12=2,17=6,18=5,40=1/2;
 3/5=1,6=6,7=1,11=1,25=1,30=1,71=1,116=1/1,2,3;
 4//1;
 5/5=2,38=5/2;
 6/7=3,28=1/1;
 7//1,2,3,16;
 1/18=20,19=15/3(2);
 2/9=110/2;
 99//99;
 2/9=110/2;
 3/5=1,6=6,7=1,11=1,25=1,30=1,71=1,116=1/1,2,3;
 4/5=5,16=3,69=1/1;
 5/5=2,38=5/2;
 7//1,2,3,16;
 1/18=20,19=15/3(-5);
 2/9=110/2;
 6/7=3,19=2,28=1/1;
 99/9=1/99;
 -------
 Benzen1
 -------
 Symbolic Z-matrix:
 Charge =  0 Multiplicity = 1
 C                     1.13488   0.4761   -0.06064 
 C                     0.4692    0.4572   -1.291 
 C                    -0.92752   0.52649  -1.33178 
 C                    -1.65854   0.61466  -0.1422 
 C                    -0.99286   0.63368   1.08815 
 C                     0.40386   0.5644    1.12893 
 H                    -0.40749  -2.44408   0.38993 
 H                    -0.42133  -2.47135  -0.31732 
 H                     2.21539   0.42227  -0.02908 
 H                     1.03472   0.38873  -2.21126 
 H                    -1.44252   0.51161  -2.28359 
 H                    -2.73908   0.66801  -0.17374 
 H                    -1.5584    0.70171   2.00844 
 H                     0.91883   0.57885   2.08076 
 
 Add virtual bond connecting atoms H7         and C1         Dist= 6.30D+00.
 Add virtual bond connecting atoms H7         and C4         Dist= 6.33D+00.
 Add virtual bond connecting atoms H7         and C5         Dist= 6.07D+00.
 Add virtual bond connecting atoms H7         and C6         Dist= 6.05D+00.
 Add virtual bond connecting atoms H8         and C1         Dist= 6.32D+00.

 GradGradGradGradGradGradGradGradGradGradGradGradGradGradGradGradGradGrad
 Berny optimization.
 Initialization pass.
                           ----------------------------
                           !    Initial Parameters    !
                           ! (Angstroms and Degrees)  !
 --------------------------                            --------------------------
 ! Name  Definition              Value          Derivative Info.                !
 --------------------------------------------------------------------------------
 ! R1    R(1,2)                  1.399          estimate D2E/DX2                !
 ! R2    R(1,6)                  1.399          estimate D2E/DX2                !
 ! R3    R(1,7)                  3.3331         estimate D2E/DX2                !
 ! R4    R(1,8)                  3.3429         estimate D2E/DX2                !
 ! R5    R(1,9)                  1.0823         estimate D2E/DX2                !
 ! R6    R(2,3)                  1.399          estimate D2E/DX2                !
 ! R7    R(2,10)                 1.0823         estimate D2E/DX2                !
 ! R8    R(3,4)                  1.399          estimate D2E/DX2                !
 ! R9    R(3,11)                 1.0823         estimate D2E/DX2                !
 ! R10   R(4,5)                  1.399          estimate D2E/DX2                !
 ! R11   R(4,7)                  3.3473         estimate D2E/DX2                !
 ! R12   R(4,12)                 1.0823         estimate D2E/DX2                !
 ! R13   R(5,6)                  1.399          estimate D2E/DX2                !
 ! R14   R(5,7)                  3.2098         estimate D2E/DX2                !
 ! R15   R(5,13)                 1.0823         estimate D2E/DX2                !
 ! R16   R(6,7)                  3.2024         estimate D2E/DX2                !
 ! R17   R(6,14)                 1.0823         estimate D2E/DX2                !
 ! R18   R(7,8)                  0.7079         estimate D2E/DX2                !
 ! A1    A(2,1,6)              120.0005         estimate D2E/DX2                !
 ! A2    A(2,1,7)               83.5041         estimate D2E/DX2                !
 ! A3    A(2,1,8)               72.4858         estimate D2E/DX2                !
 ! A4    A(2,1,9)              119.9997         estimate D2E/DX2                !
 ! A5    A(6,1,8)               82.9747         estimate D2E/DX2                !
 ! A6    A(6,1,9)              119.9998         estimate D2E/DX2                !
 ! A7    A(7,1,9)              114.4848         estimate D2E/DX2                !
 ! A8    A(8,1,9)              115.0323         estimate D2E/DX2                !
 ! A9    A(1,2,3)              119.9998         estimate D2E/DX2                !
 ! A10   A(1,2,10)             120.0004         estimate D2E/DX2                !
 ! A11   A(3,2,10)             119.9999         estimate D2E/DX2                !
 ! A12   A(2,3,4)              119.9997         estimate D2E/DX2                !
 ! A13   A(2,3,11)             119.9999         estimate D2E/DX2                !
 ! A14   A(4,3,11)             120.0004         estimate D2E/DX2                !
 ! A15   A(3,4,5)              120.0005         estimate D2E/DX2                !
 ! A16   A(3,4,7)               83.24           estimate D2E/DX2                !
 ! A17   A(3,4,12)             119.9997         estimate D2E/DX2                !
 ! A18   A(5,4,12)             119.9998         estimate D2E/DX2                !
 ! A19   A(7,4,12)             115.0127         estimate D2E/DX2                !
 ! A20   A(4,5,6)              119.9997         estimate D2E/DX2                !
 ! A21   A(4,5,13)             120.0003         estimate D2E/DX2                !
 ! A22   A(6,5,13)             119.9999         estimate D2E/DX2                !
 ! A23   A(7,5,13)             109.9094         estimate D2E/DX2                !
 ! A24   A(1,6,5)              119.9997         estimate D2E/DX2                !
 ! A25   A(1,6,14)             120.0004         estimate D2E/DX2                !
 ! A26   A(5,6,14)             119.9999         estimate D2E/DX2                !
 ! A27   A(7,6,14)             109.6352         estimate D2E/DX2                !
 ! A28   A(1,7,4)               49.5231         estimate D2E/DX2                !
 ! A29   A(1,7,5)               43.424          estimate D2E/DX2                !
 ! A30   A(4,7,6)               43.3571         estimate D2E/DX2                !
 ! A31   A(4,7,8)               82.4761         estimate D2E/DX2                !
 ! A32   A(5,7,8)              104.5185         estimate D2E/DX2                !
 ! A33   A(6,7,8)              105.7649         estimate D2E/DX2                !
 ! D1    D(6,1,2,3)             -0.0054         estimate D2E/DX2                !
 ! D2    D(6,1,2,10)          -179.9898         estimate D2E/DX2                !
 ! D3    D(7,1,2,3)             65.4082         estimate D2E/DX2                !
 ! D4    D(7,1,2,10)          -114.5762         estimate D2E/DX2                !
 ! D5    D(8,1,2,3)             70.708          estimate D2E/DX2                !
 ! D6    D(8,1,2,10)          -109.2764         estimate D2E/DX2                !
 ! D7    D(9,1,2,3)            179.9854         estimate D2E/DX2                !
 ! D8    D(9,1,2,10)             0.001          estimate D2E/DX2                !
 ! D9    D(2,1,6,5)              0.0061         estimate D2E/DX2                !
 ! D10   D(2,1,6,14)           179.9891         estimate D2E/DX2                !
 ! D11   D(8,1,6,5)            -65.0786         estimate D2E/DX2                !
 ! D12   D(8,1,6,14)           114.9044         estimate D2E/DX2                !
 ! D13   D(9,1,6,5)           -179.9848         estimate D2E/DX2                !
 ! D14   D(9,1,6,14)            -0.0017         estimate D2E/DX2                !
 ! D15   D(2,1,7,4)            -59.9255         estimate D2E/DX2                !
 ! D16   D(2,1,7,5)            -92.9639         estimate D2E/DX2                !
 ! D17   D(9,1,7,4)           -179.9982         estimate D2E/DX2                !
 ! D18   D(9,1,7,5)            146.9634         estimate D2E/DX2                !
 ! D19   D(1,2,3,4)             -0.0007         estimate D2E/DX2                !
 ! D20   D(1,2,3,11)          -179.9842         estimate D2E/DX2                !
 ! D21   D(10,2,3,4)           179.9837         estimate D2E/DX2                !
 ! D22   D(10,2,3,11)            0.0001         estimate D2E/DX2                !
 ! D23   D(2,3,4,5)              0.006          estimate D2E/DX2                !
 ! D24   D(2,3,4,7)            -64.9473         estimate D2E/DX2                !
 ! D25   D(2,3,4,12)          -179.9848         estimate D2E/DX2                !
 ! D26   D(11,3,4,5)           179.9896         estimate D2E/DX2                !
 ! D27   D(11,3,4,7)           115.0363         estimate D2E/DX2                !
 ! D28   D(11,3,4,12)           -0.0012         estimate D2E/DX2                !
 ! D29   D(3,4,5,6)             -0.0054         estimate D2E/DX2                !
 ! D30   D(3,4,5,13)          -179.9892         estimate D2E/DX2                !
 ! D31   D(12,4,5,6)           179.9855         estimate D2E/DX2                !
 ! D32   D(12,4,5,13)            0.0016         estimate D2E/DX2                !
 ! D33   D(3,4,7,1)             59.9785         estimate D2E/DX2                !
 ! D34   D(3,4,7,6)             93.1492         estimate D2E/DX2                !
 ! D35   D(3,4,7,8)            -29.4699         estimate D2E/DX2                !
 ! D36   D(12,4,7,1)           179.9983         estimate D2E/DX2                !
 ! D37   D(12,4,7,6)          -146.8311         estimate D2E/DX2                !
 ! D38   D(12,4,7,8)            90.5498         estimate D2E/DX2                !
 ! D39   D(4,5,6,1)             -0.0007         estimate D2E/DX2                !
 ! D40   D(4,5,6,14)          -179.9837         estimate D2E/DX2                !
 ! D41   D(13,5,6,1)           179.9832         estimate D2E/DX2                !
 ! D42   D(13,5,6,14)            0.0002         estimate D2E/DX2                !
 ! D43   D(13,5,7,1)          -148.1504         estimate D2E/DX2                !
 ! D44   D(13,5,7,8)           146.1962         estimate D2E/DX2                !
 ! D45   D(14,6,7,4)           148.2367         estimate D2E/DX2                !
 ! D46   D(14,6,7,8)          -151.5757         estimate D2E/DX2                !
 --------------------------------------------------------------------------------
 Trust Radius=3.00D-01 FncErr=1.00D-07 GrdErr=1.00D-07 EigMax=2.50D+02 EigMin=1.00D-04
 Number of steps in this run=    100 maximum allowed number of steps=    100.
 GradGradGradGradGradGradGradGradGradGradGradGradGradGradGradGradGradGrad

                          Input orientation:                          
 ---------------------------------------------------------------------
 Center     Atomic      Atomic             Coordinates (Angstroms)
 Number     Number       Type             X           Y           Z
 ---------------------------------------------------------------------
      1          6           0        1.134879    0.476104   -0.060641
      2          6           0        0.469199    0.457203   -1.291001
      3          6           0       -0.927521    0.526489   -1.331781
      4          6           0       -1.658545    0.614661   -0.142201
      5          6           0       -0.992859    0.633675    1.088154
      6          6           0        0.403862    0.564404    1.128934
      7          1           0       -0.407487   -2.444085    0.389935
      8          1           0       -0.421335   -2.471353   -0.317324
      9          1           0        2.215386    0.422265   -0.029084
     10          1           0        1.034718    0.388727   -2.211265
     11          1           0       -1.442516    0.511610   -2.283594
     12          1           0       -2.739076    0.668013   -0.173740
     13          1           0       -1.558402    0.701711    2.008436
     14          1           0        0.918835    0.578847    2.080764
 ---------------------------------------------------------------------
                    Distance matrix (angstroms):
                    1          2          3          4          5
     1  C    0.000000
     2  C    1.399025   0.000000
     3  C    2.423185   1.399032   0.000000
     4  C    2.798046   2.423185   1.399025   0.000000
     5  C    2.423186   2.798059   2.423189   1.399025   0.000000
     6  C    1.399025   2.423189   2.798060   2.423186   1.399033
     7  H    3.333078   3.465774   3.472614   3.347273   3.209794
     8  H    3.342931   3.212093   3.205059   3.329390   3.455895
     9  H    1.082308   2.154721   3.403784   3.880354   3.403785
    10  H    2.154727   1.082307   2.154728   3.403782   3.880365
    11  H    3.403783   2.154728   1.082307   2.154728   3.403788
    12  H    3.880354   3.403784   2.154721   1.082308   2.154722
    13  H    3.403783   3.880365   3.403787   2.154727   1.082306
    14  H    2.154727   3.403787   3.880366   3.403784   2.154729
                    6          7          8          9         10
     6  C    0.000000
     7  H    3.202406   0.000000
     8  H    3.462431   0.707919   0.000000
     9  H    2.154722   3.907813   3.925354   0.000000
    10  H    3.403788   4.107434   3.726548   2.481334   0.000000
    11  H    3.880367   4.117666   3.715791   4.297795   2.481334
    12  H    3.403785   3.929273   3.904890   4.962662   4.297794
    13  H    2.154728   3.720239   4.095170   4.297796   4.962671
    14  H    1.082306   3.708928   4.104948   2.481334   4.297801
                   11         12         13         14
    11  H    0.000000
    12  H    2.481334   0.000000
    13  H    4.297800   2.481334   0.000000
    14  H    4.962673   4.297796   2.481336   0.000000
 Stoichiometry    C6H8
 Framework group  C1[X(C6H8)]
 Deg. of freedom    36
 Full point group                 C1      NOp   1
 Largest Abelian subgroup         C1      NOp   1
 Largest concise Abelian subgroup C1      NOp   1
                         Standard orientation:                         
 ---------------------------------------------------------------------
 Center     Atomic      Atomic             Coordinates (Angstroms)
 Number     Number       Type             X           Y           Z
 ---------------------------------------------------------------------
      1          6           0       -0.064820    1.397494   -0.136904
      2          6           0        1.178154    0.755401   -0.135215
      3          6           0        1.243568   -0.642100   -0.135132
      4          6           0        0.066007   -1.397492   -0.136726
      5          6           0       -1.176968   -0.755400   -0.138530
      6          6           0       -1.242382    0.642102   -0.138626
      7          1           0       -0.366418   -0.000022    2.873976
      8          1           0        0.341500   -0.000013    2.872592
      9          1           0       -0.115425    2.478618   -0.136730
     10          1           0        2.089132    1.339786   -0.133716
     11          1           0        2.205151   -1.138834   -0.133567
     12          1           0        0.116613   -2.478616   -0.136413
     13          1           0       -2.087945   -1.339785   -0.139587
     14          1           0       -2.203964    1.138837   -0.139755
 ---------------------------------------------------------------------
 Rotational constants (GHZ):           4.7284160           4.7172473           2.8327161
 Standard basis: 6-31G(d) (6D, 7F)
 There are   106 symmetry adapted cartesian basis functions of A   symmetry.
 There are   106 symmetry adapted basis functions of A   symmetry.
   106 basis functions,   200 primitive gaussians,   106 cartesian basis functions
    22 alpha electrons       22 beta electrons
       nuclear repulsion energy       216.8254057947 Hartrees.
 NAtoms=   14 NActive=   14 NUniq=   14 SFac= 1.00D+00 NAtFMM=   60 NAOKFM=F Big=F
 Integral buffers will be    131072 words long.
 Raffenetti 1 integral format.
 Two-electron integral symmetry is turned on.
 One-electron integrals computed using PRISM.
 NBasis=   106 RedAO= T EigKep=  5.28D-04  NBF=   106
 NBsUse=   106 1.00D-06 EigRej= -1.00D+00 NBFU=   106
 ExpMin= 1.61D-01 ExpMax= 3.05D+03 ExpMxC= 4.57D+02 IAcc=3 IRadAn=         5 AccDes= 0.00D+00
 Harris functional with IExCor=  205 and IRadAn=       5 diagonalized for initial guess.
 HarFok:  IExCor=  205 AccDes= 0.00D+00 IRadAn=         5 IDoV= 1 UseB2=F ITyADJ=14
 ICtDFT=  3500011 ScaDFX=  1.000000  1.000000  1.000000  1.000000
 FoFCou: FMM=F IPFlag=           0 FMFlag=      100000 FMFlg1=           0
         NFxFlg=           0 DoJE=T BraDBF=F KetDBF=T FulRan=T
         wScrn=  0.000000 ICntrl=       500 IOpCl=  0 I1Cent=   200000004 NGrid=           0
         NMat0=    1 NMatS0=      1 NMatT0=    0 NMatD0=    1 NMtDS0=    0 NMtDT0=    0
 Petite list used in FoFCou.
 Keep R1 ints in memory in canonical form, NReq=16970255.
 Requested convergence on RMS density matrix=1.00D-08 within 128 cycles.
 Requested convergence on MAX density matrix=1.00D-06.
 Requested convergence on             energy=1.00D-06.
 No special actions if energy rises.
 SCF Done:  E(RHF) =  -231.827337922     A.U. after    9 cycles
            NFock=  9  Conv=0.88D-08     -V/T= 2.0018

 **********************************************************************

            Population analysis using the SCF density.

 **********************************************************************

 Orbital symmetries:
       Occupied  (A) (A) (A) (A) (A) (A) (A) (A) (A) (A) (A) (A)
                 (A) (A) (A) (A) (A) (A) (A) (A) (A) (A)
       Virtual   (A) (A) (A) (A) (A) (A) (A) (A) (A) (A) (A) (A)
                 (A) (A) (A) (A) (A) (A) (A) (A) (A) (A) (A) (A)
                 (A) (A) (A) (A) (A) (A) (A) (A) (A) (A) (A) (A)
                 (A) (A) (A) (A) (A) (A) (A) (A) (A) (A) (A) (A)
                 (A) (A) (A) (A) (A) (A) (A) (A) (A) (A) (A) (A)
                 (A) (A) (A) (A) (A) (A) (A) (A) (A) (A) (A) (A)
                 (A) (A) (A) (A) (A) (A) (A) (A) (A) (A) (A) (A)
 The electronic state is 1-A.
 Alpha  occ. eigenvalues --  -11.23453 -11.23407 -11.23389 -11.23290 -11.23270
 Alpha  occ. eigenvalues --  -11.23222  -1.14044  -1.00708  -1.00689  -0.81731
 Alpha  occ. eigenvalues --   -0.81730  -0.70209  -0.64099  -0.60934  -0.58955
 Alpha  occ. eigenvalues --   -0.58209  -0.58190  -0.48955  -0.48928  -0.48923
 Alpha  occ. eigenvalues --   -0.32904  -0.32865
 Alpha virt. eigenvalues --    0.14604   0.14622   0.23443   0.26440   0.29312
 Alpha virt. eigenvalues --    0.29325   0.33036   0.33049   0.33485   0.36408
 Alpha virt. eigenvalues --    0.47017   0.47022   0.49422   0.49423   0.66091
 Alpha virt. eigenvalues --    0.66389   0.74409   0.77424   0.77728   0.77749
 Alpha virt. eigenvalues --    0.83282   0.83818   0.84349   0.84600   0.84604
 Alpha virt. eigenvalues --    0.86224   0.91323   0.91338   0.94635   0.99422
 Alpha virt. eigenvalues --    1.11471   1.11487   1.12171   1.12237   1.12245
 Alpha virt. eigenvalues --    1.18404   1.18443   1.20566   1.24194   1.30002
 Alpha virt. eigenvalues --    1.30028   1.38528   1.38598   1.45700   1.50453
 Alpha virt. eigenvalues --    1.51785   1.66388   1.69617   1.69622   1.76460
 Alpha virt. eigenvalues --    1.76468   1.79453   1.79639   2.05025   2.08830
 Alpha virt. eigenvalues --    2.15837   2.17600   2.30705   2.30776   2.38813
 Alpha virt. eigenvalues --    2.38820   2.46432   2.46443   2.46820   2.47670
 Alpha virt. eigenvalues --    2.63366   2.63576   2.64106   2.87896   2.87910
 Alpha virt. eigenvalues --    2.99389   3.06589   3.06601   3.07817   3.07830
 Alpha virt. eigenvalues --    3.08741   3.38740   3.78259   4.52196   4.54253
 Alpha virt. eigenvalues --    4.55628   4.75494   4.75511   5.09297
     Molecular Orbital Coefficients:
                           1         2         3         4         5
                           O         O         O         O         O
     Eigenvalues --   -11.23453 -11.23407 -11.23389 -11.23290 -11.23270
   1 1   C  1S          0.36335   0.03514  -0.53995  -0.01813   0.60228
   2        2S          0.00986   0.00097  -0.01496  -0.00050   0.01680
   3        2PX        -0.00000   0.00013   0.00001   0.00012   0.00001
   4        2PY         0.00005   0.00000   0.00007   0.00001  -0.00019
   5        2PZ         0.00001   0.00000   0.00000   0.00000  -0.00000
   6        3S         -0.00151  -0.00017   0.00375   0.00020  -0.00978
   7        3PX         0.00003  -0.00124  -0.00008  -0.00121  -0.00012
   8        3PY        -0.00044  -0.00010   0.00020  -0.00006   0.00160
   9        3PZ        -0.00002  -0.00000  -0.00000  -0.00000  -0.00000
  10        4XX        -0.00090  -0.00008   0.00117   0.00004  -0.00068
  11        4YY        -0.00082  -0.00008   0.00119   0.00002  -0.00097
  12        4ZZ        -0.00097  -0.00009   0.00133   0.00004  -0.00138
  13        4XY        -0.00000  -0.00004  -0.00000  -0.00014   0.00001
  14        4XZ         0.00000  -0.00000  -0.00000  -0.00000   0.00000
  15        4YZ        -0.00000  -0.00000   0.00000  -0.00000   0.00000
  16 2   C  1S          0.43053  -0.47036  -0.34802  -0.49324  -0.27510
  17        2S          0.01173  -0.01307  -0.00969  -0.01378  -0.00771
  18        2PX         0.00002   0.00010  -0.00001   0.00011   0.00014
  19        2PY         0.00002  -0.00002   0.00013   0.00014  -0.00003
  20        2PZ         0.00002  -0.00001  -0.00000   0.00000   0.00000
  21        3S         -0.00258   0.00403   0.00392   0.00833   0.00496
  22        3PX        -0.00018  -0.00051   0.00008  -0.00086  -0.00130
  23        3PY        -0.00022   0.00049  -0.00116  -0.00131   0.00037
  24        3PZ        -0.00002   0.00003   0.00000  -0.00000  -0.00000
  25        4XX        -0.00093   0.00097   0.00072   0.00076   0.00027
  26        4YY        -0.00097   0.00100   0.00065   0.00054   0.00040
  27        4ZZ        -0.00112   0.00113   0.00083   0.00113   0.00062
  28        4XY         0.00002   0.00002   0.00001   0.00010   0.00014
  29        4XZ        -0.00000  -0.00000  -0.00000  -0.00000  -0.00000
  30        4YZ        -0.00000   0.00000  -0.00000   0.00000   0.00000
  31 3   C  1S          0.43901  -0.50999   0.29415   0.50634  -0.23621
  32        2S          0.01197  -0.01418   0.00819   0.01415  -0.00662
  33        2PX         0.00002   0.00010   0.00001  -0.00013   0.00013
  34        2PY        -0.00002   0.00001   0.00014   0.00013   0.00005
  35        2PZ         0.00002  -0.00002   0.00000  -0.00000   0.00000
  36        3S         -0.00272   0.00462  -0.00346  -0.00866   0.00431
  37        3PX        -0.00018  -0.00052  -0.00002   0.00108  -0.00118
  38        3PY         0.00018  -0.00037  -0.00121  -0.00119  -0.00059
  39        3PZ        -0.00002   0.00003  -0.00000   0.00000  -0.00000
  40        4XX        -0.00094   0.00105  -0.00061  -0.00078   0.00023
  41        4YY        -0.00099   0.00106  -0.00053  -0.00053   0.00033
  42        4ZZ        -0.00114   0.00122  -0.00070  -0.00115   0.00053
  43        4XY        -0.00002  -0.00003  -0.00000   0.00009  -0.00014
  44        4XZ        -0.00000  -0.00000   0.00000   0.00000  -0.00000
  45        4YZ         0.00000  -0.00000  -0.00000   0.00000  -0.00000
  46 4   C  1S          0.36419  -0.01765   0.54027  -0.03486   0.60199
  47        2S          0.00988  -0.00049   0.01497  -0.00097   0.01679
  48        2PX        -0.00000   0.00013   0.00000  -0.00012  -0.00001
  49        2PY        -0.00005   0.00000   0.00007  -0.00002   0.00019
  50        2PZ         0.00001  -0.00000  -0.00000  -0.00000  -0.00000
  51        3S         -0.00152   0.00005  -0.00375   0.00059  -0.00978
  52        3PX         0.00001  -0.00124  -0.00007   0.00120   0.00013
  53        3PY         0.00045  -0.00010   0.00019   0.00017  -0.00160
  54        3PZ        -0.00002  -0.00000   0.00000   0.00000  -0.00000
  55        4XX        -0.00090   0.00004  -0.00117   0.00005  -0.00068
  56        4YY        -0.00082   0.00005  -0.00119   0.00005  -0.00097
  57        4ZZ        -0.00097   0.00004  -0.00133   0.00008  -0.00138
  58        4XY        -0.00001   0.00004   0.00000  -0.00014   0.00001
  59        4XZ         0.00000  -0.00000   0.00000  -0.00000   0.00000
  60        4YZ         0.00000  -0.00000   0.00000  -0.00000   0.00000
  61 5   C  1S          0.41338   0.48431   0.34172  -0.48817  -0.27897
  62        2S          0.01126   0.01345   0.00951  -0.01363  -0.00781
  63        2PX        -0.00003   0.00010  -0.00001  -0.00010  -0.00014
  64        2PY        -0.00002  -0.00002   0.00013  -0.00014   0.00003
  65        2PZ         0.00001   0.00002   0.00000  -0.00000   0.00000
  66        3S         -0.00243  -0.00410  -0.00382   0.00805   0.00500
  67        3PX         0.00020  -0.00049   0.00009   0.00076   0.00131
  68        3PY         0.00021   0.00049  -0.00114   0.00126  -0.00038
  69        3PZ        -0.00002  -0.00003  -0.00000   0.00000   0.00000
  70        4XX        -0.00090  -0.00100  -0.00071   0.00077   0.00028
  71        4YY        -0.00094  -0.00103  -0.00064   0.00054   0.00040
  72        4ZZ        -0.00108  -0.00117  -0.00081   0.00112   0.00063
  73        4XY         0.00003  -0.00002  -0.00001   0.00010   0.00014
  74        4XZ         0.00000  -0.00000   0.00000  -0.00000  -0.00000
  75        4YZ         0.00000   0.00000  -0.00000   0.00000   0.00000
  76 6   C  1S          0.42039   0.52293  -0.28812   0.50231  -0.23960
  77        2S          0.01145   0.01453  -0.00802   0.01403  -0.00671
  78        2PX        -0.00003   0.00010   0.00001   0.00013  -0.00013
  79        2PY         0.00002   0.00002   0.00013  -0.00013  -0.00005
  80        2PZ         0.00002   0.00002   0.00000   0.00000   0.00000
  81        3S         -0.00255  -0.00468   0.00336  -0.00838   0.00434
  82        3PX         0.00020  -0.00050  -0.00004  -0.00097   0.00119
  83        3PY        -0.00017  -0.00037  -0.00119   0.00115   0.00059
  84        3PZ        -0.00002  -0.00003   0.00000  -0.00000   0.00000
  85        4XX        -0.00091  -0.00108   0.00060  -0.00079   0.00024
  86        4YY        -0.00095  -0.00109   0.00053  -0.00054   0.00034
  87        4ZZ        -0.00110  -0.00125   0.00068  -0.00115   0.00054
  88        4XY        -0.00002   0.00003   0.00000   0.00008  -0.00014
  89        4XZ         0.00000  -0.00000  -0.00000   0.00000  -0.00000
  90        4YZ        -0.00000  -0.00000  -0.00000   0.00000  -0.00000
  91 7   H  1S         -0.00015  -0.00013  -0.00000   0.00000  -0.00001
  92        2S          0.00021   0.00066   0.00000  -0.00000   0.00000
  93 8   H  1S         -0.00016   0.00013   0.00000   0.00000  -0.00001
  94        2S          0.00024  -0.00065  -0.00000  -0.00000   0.00002
  95 9   H  1S         -0.00010  -0.00001   0.00012   0.00000  -0.00009
  96        2S          0.00078   0.00007  -0.00093  -0.00004   0.00091
  97 10  H  1S         -0.00011   0.00011   0.00009   0.00007   0.00004
  98        2S          0.00088  -0.00076  -0.00049  -0.00073  -0.00039
  99 11  H  1S         -0.00012   0.00012  -0.00007  -0.00008   0.00003
 100        2S          0.00089  -0.00080   0.00041   0.00074  -0.00033
 101 12  H  1S         -0.00010   0.00000  -0.00012   0.00001  -0.00009
 102        2S          0.00078  -0.00003   0.00093  -0.00005   0.00091
 103 13  H  1S         -0.00011  -0.00011  -0.00008   0.00007   0.00004
 104        2S          0.00085   0.00079   0.00048  -0.00074  -0.00040
 105 14  H  1S         -0.00011  -0.00012   0.00007  -0.00007   0.00003
 106        2S          0.00086   0.00083  -0.00040   0.00075  -0.00034
                           6         7         8         9        10
                           O         O         O         O         O
     Eigenvalues --   -11.23222  -1.14044  -1.00708  -1.00689  -0.81731
   1 1   C  1S          0.45114  -0.09216  -0.00605  -0.12778  -0.00405
   2        2S          0.01285   0.17508   0.01167   0.24663   0.00810
   3        2PX         0.00001   0.00274  -0.11367   0.00660   0.20287
   4        2PY        -0.00021  -0.05847  -0.00656  -0.02578   0.01213
   5        2PZ        -0.00000  -0.00001  -0.00016  -0.00000   0.00028
   6        3S         -0.01531   0.11214   0.00905   0.19164   0.00685
   7        3PX        -0.00025   0.00031  -0.01730   0.00060   0.05181
   8        3PY         0.00539  -0.00660  -0.00058   0.00463   0.00472
   9        3PZ         0.00000  -0.00002  -0.00003  -0.00007   0.00007
  10        4XX        -0.00022   0.00839  -0.00047   0.01014   0.00102
  11        4YY        -0.00049   0.00555   0.00130   0.00743  -0.00054
  12        4ZZ        -0.00088  -0.00832  -0.00048  -0.01018  -0.00029
  13        4XY         0.00002   0.00015   0.01169  -0.00041  -0.01218
  14        4XZ         0.00000   0.00003   0.00001   0.00003  -0.00001
  15        4YZ         0.00000   0.00001   0.00002   0.00001  -0.00002
  16 2   C  1S         -0.38043  -0.09223   0.10766  -0.06916  -0.08464
  17        2S         -0.01089   0.17518  -0.20773   0.13346   0.16910
  18        2PX         0.00017  -0.04923  -0.01487  -0.06367  -0.01202
  19        2PY         0.00010  -0.03165   0.06375   0.07320   0.12151
  20        2PZ         0.00000  -0.00009   0.00002  -0.00009  -0.00002
  21        3S          0.01465   0.11254  -0.16175   0.10411   0.14323
  22        3PX        -0.00456  -0.00566  -0.00828  -0.00594   0.02550
  23        3PY        -0.00281  -0.00363   0.00588   0.01359   0.04933
  24        3PZ        -0.00001   0.00008  -0.00008   0.00002   0.00004
  25        4XX         0.00026   0.00637  -0.00193   0.01224   0.01191
  26        4YY         0.00016   0.00756  -0.01285  -0.00274  -0.00204
  27        4ZZ         0.00071  -0.00834   0.00860  -0.00551  -0.00606
  28        4XY         0.00014  -0.00150  -0.00148  -0.00486   0.00187
  29        4XZ        -0.00000   0.00003  -0.00002   0.00003   0.00004
  30        4YZ         0.00000   0.00000  -0.00001  -0.00001   0.00000
  31 3   C  1S          0.37402  -0.09224   0.11371   0.05869   0.08868
  32        2S          0.01071   0.17519  -0.21940  -0.11326  -0.17718
  33        2PX        -0.00018  -0.05198  -0.00348   0.05714  -0.00833
  34        2PY         0.00008   0.02691  -0.05714   0.08461   0.11067
  35        2PZ        -0.00000  -0.00010   0.00003   0.00008  -0.00001
  36        3S         -0.01459   0.11259  -0.17091  -0.08839  -0.15010
  37        3PX         0.00479  -0.00598  -0.00720   0.00535  -0.03373
  38        3PY        -0.00238   0.00309  -0.00528   0.01465   0.04456
  39        3PZ         0.00001   0.00009  -0.00009  -0.00002  -0.00006
  40        4XX        -0.00027   0.00614  -0.00332  -0.01106  -0.01184
  41        4YY        -0.00012   0.00779  -0.01229   0.00300   0.00149
  42        4ZZ        -0.00070  -0.00834   0.00908   0.00468   0.00635
  43        4XY         0.00013   0.00134   0.00201  -0.00661   0.00103
  44        4XZ         0.00000   0.00003  -0.00003  -0.00003  -0.00004
  45        4YZ         0.00000  -0.00000   0.00001  -0.00001   0.00000
  46 4   C  1S         -0.45051  -0.09216   0.00603   0.12778  -0.00406
  47        2S         -0.01284   0.17508  -0.01164  -0.24663   0.00812
  48        2PX         0.00001  -0.00273  -0.11367   0.00659  -0.20287
  49        2PY        -0.00021   0.05848  -0.00655  -0.02578  -0.01214
  50        2PZ         0.00000  -0.00002  -0.00016   0.00002  -0.00029
  51        3S          0.01530   0.11215  -0.00903  -0.19165   0.00687
  52        3PX        -0.00027  -0.00031  -0.01730   0.00060  -0.05181
  53        3PY         0.00539   0.00660  -0.00058   0.00463  -0.00472
  54        3PZ        -0.00000  -0.00002  -0.00002   0.00008  -0.00008
  55        4XX         0.00022   0.00839   0.00047  -0.01014   0.00102
  56        4YY         0.00049   0.00555  -0.00130  -0.00743  -0.00054
  57        4ZZ         0.00088  -0.00832   0.00048   0.01018  -0.00029
  58        4XY        -0.00001   0.00016  -0.01169   0.00041  -0.01218
  59        4XZ        -0.00000   0.00003   0.00001  -0.00003   0.00001
  60        4YZ         0.00000  -0.00001  -0.00002   0.00001  -0.00002
  61 5   C  1S          0.39124  -0.09222  -0.10767   0.06916  -0.08464
  62        2S          0.01119   0.17516   0.20775  -0.13345   0.16910
  63        2PX         0.00018   0.04923  -0.01486  -0.06367   0.01203
  64        2PY         0.00010   0.03164   0.06375   0.07320  -0.12151
  65        2PZ         0.00000   0.00005  -0.00006  -0.00009   0.00001
  66        3S         -0.01483   0.11252   0.16175  -0.10409   0.14323
  67        3PX        -0.00458   0.00566  -0.00828  -0.00593  -0.02550
  68        3PY        -0.00284   0.00363   0.00588   0.01359  -0.04933
  69        3PZ        -0.00001   0.00009   0.00005  -0.00004  -0.00003
  70        4XX        -0.00028   0.00637   0.00193  -0.01224   0.01191
  71        4YY        -0.00017   0.00756   0.01285   0.00274  -0.00203
  72        4ZZ        -0.00074  -0.00834  -0.00860   0.00551  -0.00606
  73        4XY        -0.00014  -0.00150   0.00148   0.00486   0.00187
  74        4XZ         0.00000   0.00002   0.00001  -0.00003   0.00002
  75        4YZ        -0.00000  -0.00001  -0.00000   0.00001   0.00000
  76 6   C  1S         -0.38533  -0.09222  -0.11372  -0.05869   0.08868
  77        2S         -0.01103   0.17517   0.21941   0.11325  -0.17718
  78        2PX        -0.00018   0.05197  -0.00347   0.05714   0.00832
  79        2PY         0.00009  -0.02690  -0.05713   0.08460  -0.11067
  80        2PZ        -0.00000   0.00005  -0.00004   0.00008   0.00002
  81        3S          0.01479   0.11257   0.17091   0.08838  -0.15009
  82        3PX         0.00482   0.00598  -0.00720   0.00535   0.03373
  83        3PY        -0.00241  -0.00309  -0.00528   0.01465  -0.04456
  84        3PZ         0.00001   0.00010   0.00007   0.00004   0.00003
  85        4XX         0.00029   0.00614   0.00332   0.01106  -0.01184
  86        4YY         0.00014   0.00779   0.01229  -0.00300   0.00149
  87        4ZZ         0.00072  -0.00834  -0.00908  -0.00468   0.00635
  88        4XY        -0.00013   0.00134  -0.00201   0.00661   0.00103
  89        4XZ        -0.00000   0.00002   0.00001   0.00002  -0.00002
  90        4YZ        -0.00000   0.00001   0.00000   0.00001   0.00000
  91 7   H  1S         -0.00000   0.00234   0.00065  -0.00000  -0.00004
  92        2S          0.00001   0.00007  -0.00016   0.00000  -0.00003
  93 8   H  1S          0.00000   0.00235  -0.00061   0.00000  -0.00003
  94        2S         -0.00001   0.00002   0.00016  -0.00000  -0.00003
  95 9   H  1S         -0.00016   0.03554   0.00363   0.07674   0.00459
  96        2S         -0.00012   0.00380   0.00072   0.01527   0.00145
  97 10  H  1S          0.00014   0.03559  -0.06467   0.04156   0.09602
  98        2S          0.00023   0.00383  -0.01288   0.00831   0.03031
  99 11  H  1S         -0.00014   0.03560  -0.06831  -0.03527  -0.10064
 100        2S         -0.00024   0.00384  -0.01361  -0.00706  -0.03177
 101 12  H  1S          0.00016   0.03554  -0.00362  -0.07674   0.00460
 102        2S          0.00012   0.00380  -0.00072  -0.01527   0.00145
 103 13  H  1S         -0.00014   0.03559   0.06467  -0.04156   0.09602
 104        2S         -0.00022   0.00383   0.01288  -0.00831   0.03031
 105 14  H  1S          0.00014   0.03559   0.06831   0.03527  -0.10064
 106        2S          0.00023   0.00384   0.01361   0.00706  -0.03177
                          11        12        13        14        15
                           O         O         O         O         O
     Eigenvalues --    -0.81730  -0.70209  -0.64099  -0.60934  -0.58955
   1 1   C  1S         -0.10008   0.00750  -0.05631   0.00000   0.00171
   2        2S          0.19996  -0.01313   0.11609  -0.00000  -0.00503
   3        2PX        -0.01128   0.00905  -0.00613   0.27130  -0.00026
   4        2PY         0.06491  -0.19377   0.13087   0.01271   0.00394
   5        2PZ        -0.00004   0.00009  -0.00001   0.00039   0.03086
   6        3S          0.16903  -0.03273   0.06018   0.00001   0.00072
   7        3PX        -0.00477   0.00333  -0.00599   0.09630  -0.00011
   8        3PY         0.05661  -0.07120   0.12754   0.00451   0.00089
   9        3PZ        -0.00005   0.00016  -0.00004   0.00013   0.01986
  10        4XX         0.00067   0.00027  -0.01256   0.00079  -0.00052
  11        4YY         0.01101  -0.00548   0.01871  -0.00079  -0.00023
  12        4ZZ        -0.00717   0.00062  -0.00352   0.00000   0.00088
  13        4XY        -0.00006   0.00031  -0.00169  -0.00968  -0.00001
  14        4XZ         0.00001  -0.00000  -0.00001  -0.00001   0.00008
  15        4YZ         0.00000   0.00000  -0.00000  -0.00001  -0.00207
  16 2   C  1S          0.05350   0.00738   0.05621  -0.00003   0.00195
  17        2S         -0.10689  -0.01288  -0.11587   0.00006  -0.00505
  18        2PX        -0.12255  -0.16323  -0.11104  -0.14660   0.00311
  19        2PY         0.12578  -0.10499  -0.07100   0.22879   0.00220
  20        2PZ        -0.00016  -0.00014  -0.00016  -0.00019   0.03126
  21        3S         -0.09045  -0.03234  -0.06035   0.00016  -0.00184
  22        3PX        -0.04946  -0.06012  -0.10789  -0.05215   0.00174
  23        3PY         0.02065  -0.03860  -0.06890   0.08138   0.00099
  24        3PZ        -0.00010   0.00002  -0.00017  -0.00009   0.01929
  25        4XX         0.00386  -0.00383  -0.00962   0.00767  -0.00029
  26        4YY        -0.01011  -0.00137   0.00347  -0.00766  -0.00041
  27        4ZZ         0.00384   0.00062   0.00352   0.00000   0.00103
  28        4XY        -0.00720  -0.00304  -0.01653  -0.00404   0.00015
  29        4XZ        -0.00000  -0.00001  -0.00003   0.00001  -0.00167
  30        4YZ        -0.00001  -0.00001  -0.00002  -0.00001  -0.00114
  31 3   C  1S          0.04648   0.00737  -0.05620  -0.00002   0.00197
  32        2S         -0.09286  -0.01285   0.11584   0.00006  -0.00505
  33        2PX        -0.10997  -0.17235   0.11725  -0.12461   0.00329
  34        2PY        -0.14611   0.08927  -0.06037  -0.24149  -0.00187
  35        2PZ        -0.00015  -0.00015   0.00017  -0.00016   0.03131
  36        3S         -0.07859  -0.03229   0.06037   0.00014  -0.00213
  37        3PX        -0.04474  -0.06348   0.11387  -0.04434   0.00193
  38        3PY        -0.02888   0.03282  -0.05856  -0.08592  -0.00089
  39        3PZ        -0.00009   0.00001   0.00018  -0.00008   0.01923
  40        4XX         0.00355  -0.00429   0.01218   0.00688  -0.00026
  41        4YY        -0.00897  -0.00091  -0.00602  -0.00688  -0.00043
  42        4ZZ         0.00333   0.00062  -0.00352   0.00000   0.00105
  43        4XY         0.00852   0.00272  -0.01484   0.00561  -0.00013
  44        4XZ        -0.00000  -0.00001   0.00003   0.00001  -0.00177
  45        4YZ         0.00002   0.00001  -0.00002   0.00001   0.00097
  46 4   C  1S         -0.10008   0.00750   0.05631   0.00001   0.00171
  47        2S          0.19996  -0.01313  -0.11609  -0.00001  -0.00503
  48        2PX         0.01130  -0.00904  -0.00616   0.27130   0.00008
  49        2PY        -0.06491   0.19377   0.13087   0.01272  -0.00396
  50        2PZ        -0.00001   0.00006  -0.00001   0.00038   0.03085
  51        3S          0.16903  -0.03273  -0.06018  -0.00002   0.00071
  52        3PX         0.00477  -0.00333  -0.00600   0.09630  -0.00000
  53        3PY        -0.05661   0.07120   0.12754   0.00452  -0.00091
  54        3PZ        -0.00003   0.00015   0.00002   0.00014   0.01985
  55        4XX         0.00067   0.00027   0.01256  -0.00078  -0.00052
  56        4YY         0.01101  -0.00548  -0.01871   0.00078  -0.00023
  57        4ZZ        -0.00717   0.00062   0.00352  -0.00000   0.00087
  58        4XY        -0.00006   0.00031   0.00169   0.00968  -0.00003
  59        4XZ         0.00001  -0.00000   0.00001  -0.00001  -0.00010
  60        4YZ        -0.00000  -0.00000   0.00000   0.00001   0.00207
  61 5   C  1S          0.05351   0.00738  -0.05622   0.00002   0.00196
  62        2S         -0.10690  -0.01288   0.11588  -0.00006  -0.00507
  63        2PX         0.12254   0.16321  -0.11102  -0.14660  -0.00297
  64        2PY        -0.12577   0.10497  -0.07101   0.22877  -0.00206
  65        2PZ         0.00018   0.00032  -0.00015  -0.00022   0.03139
  66        3S         -0.09046  -0.03234   0.06035  -0.00015  -0.00189
  67        3PX         0.04946   0.06011  -0.10788  -0.05215  -0.00169
  68        3PY        -0.02065   0.03859  -0.06891   0.08137  -0.00091
  69        3PZ         0.00004   0.00019  -0.00013  -0.00005   0.01937
  70        4XX         0.00386  -0.00382   0.00962  -0.00766  -0.00031
  71        4YY        -0.01011  -0.00138  -0.00347   0.00766  -0.00040
  72        4ZZ         0.00384   0.00062  -0.00352  -0.00000   0.00105
  73        4XY        -0.00720  -0.00303   0.01653   0.00404   0.00013
  74        4XZ         0.00000  -0.00000   0.00002  -0.00001   0.00167
  75        4YZ        -0.00001  -0.00000   0.00002  -0.00000   0.00115
  76 6   C  1S          0.04649   0.00737   0.05621   0.00002   0.00199
  77        2S         -0.09287  -0.01286  -0.11585  -0.00005  -0.00507
  78        2PX         0.10996   0.17232   0.11724  -0.12461  -0.00312
  79        2PY         0.14610  -0.08925  -0.06038  -0.24147   0.00175
  80        2PZ         0.00016   0.00033   0.00016  -0.00019   0.03145
  81        3S         -0.07860  -0.03230  -0.06037  -0.00013  -0.00220
  82        3PX         0.04474   0.06347   0.11387  -0.04434  -0.00187
  83        3PY         0.02888  -0.03281  -0.05857  -0.08591   0.00082
  84        3PZ         0.00004   0.00019   0.00014  -0.00004   0.01931
  85        4XX         0.00355  -0.00429  -0.01218  -0.00688  -0.00029
  86        4YY        -0.00897  -0.00091   0.00602   0.00688  -0.00042
  87        4ZZ         0.00334   0.00062   0.00352  -0.00000   0.00107
  88        4XY         0.00852   0.00272   0.01484  -0.00561  -0.00012
  89        4XZ         0.00000  -0.00000  -0.00002  -0.00001   0.00177
  90        4YZ         0.00001   0.00000   0.00002  -0.00000  -0.00098
  91 7   H  1S         -0.00027   0.00399  -0.00000   0.00003   0.32562
  92        2S         -0.00019   0.00127  -0.00001   0.00009   0.25970
  93 8   H  1S         -0.00026   0.00401   0.00000   0.00001   0.32561
  94        2S         -0.00019   0.00121   0.00001  -0.00006   0.25954
  95 9   H  1S          0.11340  -0.11123   0.13588   0.00000   0.00031
  96        2S          0.03578  -0.06637   0.06600   0.00000   0.00087
  97 10  H  1S         -0.06077  -0.11121  -0.13629   0.00012   0.00011
  98        2S         -0.01919  -0.06637  -0.06631   0.00009   0.00053
  99 11  H  1S         -0.05282  -0.11120   0.13634   0.00011   0.00008
 100        2S         -0.01667  -0.06637   0.06635   0.00008   0.00049
 101 12  H  1S          0.11340  -0.11123  -0.13588  -0.00002   0.00032
 102        2S          0.03578  -0.06637  -0.06600  -0.00002   0.00087
 103 13  H  1S         -0.06078  -0.11119   0.13629  -0.00011  -0.00007
 104        2S         -0.01919  -0.06636   0.06631  -0.00009   0.00044
 105 14  H  1S         -0.05282  -0.11119  -0.13633  -0.00010  -0.00010
 106        2S         -0.01668  -0.06636  -0.06635  -0.00008   0.00039
                          16        17        18        19        20
                           O         O         O         O         O
     Eigenvalues --    -0.58209  -0.58190  -0.48955  -0.48928  -0.48923
   1 1   C  1S         -0.00094   0.02038  -0.00041  -0.00020  -0.00488
   2        2S          0.00210  -0.04529   0.00188   0.00064   0.01555
   3        2PX        -0.08543  -0.01777   0.00048   0.25672  -0.00020
   4        2PY        -0.01777   0.29304  -0.00540   0.00281  -0.22273
   5        2PZ        -0.00014   0.00001   0.20785  -0.00024  -0.00439
   6        3S          0.00143  -0.03093  -0.00138  -0.00018  -0.00400
   7        3PX        -0.02938  -0.00745   0.00016   0.11259   0.00139
   8        3PY        -0.00745   0.12913  -0.00239  -0.00006  -0.12887
   9        3PZ        -0.00005  -0.00004   0.13569  -0.00024  -0.00283
  10        4XX        -0.00076  -0.00890   0.00059   0.00202   0.01843
  11        4YY         0.00041   0.01644  -0.00038  -0.00236  -0.02649
  12        4ZZ        -0.00000   0.00002  -0.00011   0.00004   0.00091
  13        4XY         0.01454  -0.00069   0.00004  -0.01540   0.00308
  14        4XZ         0.00001  -0.00001   0.00055  -0.00001   0.00002
  15        4YZ         0.00002  -0.00001  -0.01161   0.00001   0.00025
  16 2   C  1S          0.01727   0.01119  -0.00031  -0.00419   0.00263
  17        2S         -0.03833  -0.02484   0.00117   0.01333  -0.00838
  18        2PX         0.18303   0.17242  -0.00194  -0.23254  -0.01681
  19        2PY         0.17248   0.02442   0.00487   0.01422   0.24678
  20        2PZ         0.00029   0.00025   0.20781  -0.00095  -0.00434
  21        3S         -0.02646  -0.01711   0.00022  -0.00336   0.00208
  22        3PX         0.08309   0.07221  -0.00078  -0.12429   0.00665
  23        3PY         0.07223   0.01649   0.00231  -0.00773   0.11729
  24        3PZ         0.00005   0.00013   0.13619  -0.00061  -0.00285
  25        4XX         0.01382  -0.00477   0.00053  -0.00481   0.01756
  26        4YY        -0.00745   0.00883  -0.00014  -0.00200  -0.01326
  27        4ZZ         0.00004   0.00002  -0.00020   0.00077  -0.00048
  28        4XY         0.00792   0.01225   0.00008  -0.02354   0.00725
  29        4XZ         0.00002  -0.00001  -0.00980   0.00002   0.00024
  30        4YZ         0.00001   0.00002  -0.00627  -0.00002   0.00014
  31 3   C  1S          0.01826  -0.00953  -0.00030   0.00440   0.00228
  32        2S         -0.04052   0.02116   0.00109  -0.01399  -0.00726
  33        2PX         0.21366  -0.15468  -0.00053   0.22991  -0.01273
  34        2PY        -0.15471  -0.00622  -0.00490   0.01534  -0.24940
  35        2PZ         0.00033  -0.00022   0.20780  -0.00026  -0.00434
  36        3S         -0.02800   0.01459   0.00040   0.00351   0.00179
  37        3PX         0.09591  -0.06477  -0.00012   0.12548   0.00721
  38        3PY        -0.06478   0.00366  -0.00231  -0.00569  -0.11612
  39        3PZ         0.00007  -0.00012   0.13624  -0.00018  -0.00285
  40        4XX         0.01459   0.00406   0.00057   0.01007   0.01769
  41        4YY        -0.00788  -0.00751  -0.00016  -0.00294  -0.01397
  42        4ZZ         0.00004  -0.00002  -0.00021  -0.00080  -0.00041
  43        4XY        -0.00673   0.01293  -0.00011  -0.02306  -0.00191
  44        4XZ         0.00002   0.00001  -0.01035   0.00005   0.00025
  45        4YZ        -0.00001   0.00002   0.00533  -0.00005  -0.00011
  46 4   C  1S          0.00094  -0.02038  -0.00041  -0.00021  -0.00488
  47        2S         -0.00209   0.04529   0.00188   0.00065   0.01555
  48        2PX        -0.08543  -0.01775  -0.00108  -0.25672   0.00020
  49        2PY        -0.01773   0.29304   0.00540  -0.00279   0.22273
  50        2PZ        -0.00014  -0.00006   0.20785  -0.00096  -0.00439
  51        3S         -0.00143   0.03093  -0.00137  -0.00016  -0.00400
  52        3PX        -0.02938  -0.00745  -0.00055  -0.11259  -0.00140
  53        3PY        -0.00743   0.12913   0.00239   0.00007   0.12887
  54        3PZ        -0.00006   0.00002   0.13569  -0.00056  -0.00283
  55        4XX         0.00076   0.00890   0.00059   0.00202   0.01843
  56        4YY        -0.00041  -0.01644  -0.00038  -0.00236  -0.02649
  57        4ZZ         0.00000  -0.00002  -0.00011   0.00004   0.00091
  58        4XY        -0.01454   0.00069   0.00000  -0.01540   0.00308
  59        4XZ         0.00001   0.00002  -0.00054   0.00002   0.00004
  60        4YZ        -0.00002  -0.00001   0.01161  -0.00005  -0.00024
  61 5   C  1S         -0.01728  -0.01119  -0.00032  -0.00418   0.00263
  62        2S          0.03833   0.02484   0.00119   0.01332  -0.00839
  63        2PX         0.18305   0.17240   0.00136   0.23255   0.01681
  64        2PY         0.17248   0.02442  -0.00486  -0.01421  -0.24681
  65        2PZ         0.00019   0.00024   0.20774  -0.00029  -0.00430
  66        3S          0.02645   0.01710   0.00021  -0.00336   0.00207
  67        3PX         0.08310   0.07219   0.00039   0.12429  -0.00664
  68        3PY         0.07223   0.01649  -0.00231   0.00774  -0.11730
  69        3PZ         0.00016   0.00007   0.13613  -0.00026  -0.00287
  70        4XX        -0.01382   0.00477   0.00048  -0.00481   0.01757
  71        4YY         0.00745  -0.00883  -0.00013  -0.00200  -0.01326
  72        4ZZ        -0.00004  -0.00002  -0.00016   0.00077  -0.00048
  73        4XY        -0.00792  -0.01225   0.00007  -0.02354   0.00725
  74        4XZ        -0.00002   0.00001   0.00980  -0.00004  -0.00018
  75        4YZ        -0.00002  -0.00002   0.00627  -0.00005  -0.00011
  76 6   C  1S         -0.01827   0.00953  -0.00030   0.00439   0.00228
  77        2S          0.04052  -0.02115   0.00111  -0.01399  -0.00727
  78        2PX         0.21367  -0.15466  -0.00005  -0.22993   0.01273
  79        2PY        -0.15470  -0.00622   0.00489  -0.01534   0.24943
  80        2PZ         0.00023  -0.00021   0.20773  -0.00091  -0.00430
  81        3S          0.02800  -0.01458   0.00040   0.00351   0.00178
  82        3PX         0.09591  -0.06476  -0.00027  -0.12548  -0.00720
  83        3PY        -0.06477   0.00366   0.00231   0.00570   0.11612
  84        3PZ         0.00017  -0.00006   0.13618  -0.00053  -0.00287
  85        4XX        -0.01459  -0.00406   0.00052   0.01007   0.01769
  86        4YY         0.00788   0.00751  -0.00015  -0.00294  -0.01397
  87        4ZZ        -0.00004   0.00002  -0.00016  -0.00080  -0.00041
  88        4XY         0.00673  -0.01292  -0.00009  -0.02307  -0.00191
  89        4XZ        -0.00003  -0.00000   0.01035  -0.00001  -0.00019
  90        4YZ         0.00001  -0.00002  -0.00533  -0.00002   0.00010
  91 7   H  1S          0.00023  -0.00000  -0.06636   0.00020   0.00147
  92        2S         -0.00215  -0.00000  -0.05047   0.00016   0.00113
  93 8   H  1S         -0.00058  -0.00000  -0.06632   0.00020   0.00147
  94        2S          0.00184  -0.00000  -0.05007   0.00015   0.00111
  95 9   H  1S         -0.00773   0.16467  -0.00330  -0.00670  -0.16213
  96        2S         -0.00596   0.12711  -0.00309  -0.00590  -0.14277
  97 10  H  1S          0.13858   0.08862   0.00153  -0.13701   0.08682
  98        2S          0.10700   0.06849   0.00133  -0.12074   0.07653
  99 11  H  1S          0.14619  -0.07531   0.00210   0.14370   0.07520
 100        2S          0.11290  -0.05821   0.00185   0.12665   0.06629
 101 12  H  1S          0.00771  -0.16467  -0.00330  -0.00671  -0.16213
 102        2S          0.00594  -0.12711  -0.00309  -0.00590  -0.14277
 103 13  H  1S         -0.13858  -0.08861   0.00153  -0.13702   0.08684
 104        2S         -0.10701  -0.06848   0.00132  -0.12075   0.07654
 105 14  H  1S         -0.14619   0.07530   0.00210   0.14372   0.07521
 106        2S         -0.11290   0.05820   0.00184   0.12666   0.06630
                          21        22        23        24        25
                           O         O         V         V         V
     Eigenvalues --    -0.32904  -0.32865   0.14604   0.14622   0.23443
   1 1   C  1S          0.00000  -0.00001  -0.00000   0.00002   0.03768
   2        2S          0.00001  -0.00019  -0.00001   0.00006  -0.04682
   3        2PX         0.00004   0.00044  -0.00001  -0.00045   0.00504
   4        2PY        -0.00000   0.00003  -0.00000  -0.00002  -0.10771
   5        2PZ         0.01481  -0.31336  -0.01476   0.30973   0.00014
   6        3S         -0.00011   0.00101  -0.00000  -0.00050  -0.55672
   7        3PX        -0.00010   0.00040   0.00014  -0.00080   0.01447
   8        3PY         0.00005  -0.00037   0.00004  -0.00045  -0.30940
   9        3PZ         0.01260  -0.26732  -0.02696   0.56631  -0.00016
  10        4XX         0.00005  -0.00001   0.00008   0.00002  -0.01169
  11        4YY         0.00000  -0.00002  -0.00000   0.00002   0.01764
  12        4ZZ        -0.00005   0.00003  -0.00008  -0.00004   0.00044
  13        4XY         0.00002  -0.00001   0.00000  -0.00001  -0.00159
  14        4XZ        -0.02153  -0.00145  -0.03267  -0.00202  -0.00002
  15        4YZ        -0.00144   0.00917  -0.00199   0.00970   0.00000
  16 2   C  1S         -0.00011   0.00001   0.00001   0.00001   0.03780
  17        2S          0.00012   0.00004   0.00008   0.00011  -0.04689
  18        2PX         0.00053   0.00029   0.00042   0.00024  -0.09095
  19        2PY        -0.00000   0.00000   0.00002   0.00002  -0.05845
  20        2PZ        -0.26360  -0.16959  -0.26080  -0.16752   0.00012
  21        3S          0.00046  -0.00082  -0.00060  -0.00011  -0.55914
  22        3PX        -0.00011   0.00062   0.00085   0.00041  -0.26170
  23        3PY        -0.00015   0.00028   0.00037   0.00019  -0.16833
  24        3PZ        -0.22455  -0.14504  -0.47698  -0.30661  -0.00039
  25        4XX         0.00000  -0.00004   0.00000   0.00006   0.00912
  26        4YY         0.00000  -0.00000   0.00000   0.00002  -0.00315
  27        4ZZ        -0.00013   0.00006   0.00003  -0.00003   0.00045
  28        4XY        -0.00004   0.00002   0.00003  -0.00002   0.01546
  29        4XZ         0.00021   0.01403   0.00261  -0.01938   0.00002
  30        4YZ         0.01402  -0.01261  -0.01936   0.02036   0.00002
  31 3   C  1S         -0.00011  -0.00001  -0.00001   0.00001   0.03781
  32        2S          0.00015  -0.00004  -0.00011   0.00010  -0.04690
  33        2PX         0.00055  -0.00024  -0.00045   0.00020  -0.09604
  34        2PY         0.00000   0.00000   0.00002  -0.00002   0.04970
  35        2PZ        -0.27840   0.14394   0.27553  -0.14196   0.00013
  36        3S          0.00025   0.00083   0.00070  -0.00013  -0.55941
  37        3PX        -0.00001  -0.00061  -0.00092   0.00034  -0.27644
  38        3PY         0.00007   0.00023   0.00033  -0.00016   0.14319
  39        3PZ        -0.23723   0.12313   0.50399  -0.25987  -0.00039
  40        4XX        -0.00001   0.00003  -0.00002   0.00006   0.01150
  41        4YY         0.00001   0.00000  -0.00000   0.00002  -0.00554
  42        4ZZ        -0.00013  -0.00005  -0.00002  -0.00002   0.00045
  43        4XY         0.00004   0.00002   0.00003   0.00003  -0.01387
  44        4XZ         0.00272  -0.01259   0.00087  -0.01740   0.00003
  45        4YZ        -0.01257  -0.01513  -0.01734  -0.02384  -0.00002
  46 4   C  1S         -0.00001   0.00001  -0.00000   0.00002   0.03768
  47        2S          0.00000   0.00019  -0.00001   0.00006  -0.04682
  48        2PX         0.00009  -0.00045   0.00006  -0.00044  -0.00503
  49        2PY        -0.00000   0.00003  -0.00000   0.00002   0.10772
  50        2PZ        -0.01474   0.31336  -0.01478   0.30972   0.00013
  51        3S          0.00016  -0.00101   0.00000  -0.00050  -0.55673
  52        3PX        -0.00006  -0.00035  -0.00006  -0.00080  -0.01442
  53        3PY         0.00010  -0.00037  -0.00004   0.00045   0.30941
  54        3PZ        -0.01253   0.26733  -0.02700   0.56631  -0.00020
  55        4XX         0.00006   0.00002  -0.00008   0.00001  -0.01169
  56        4YY        -0.00000   0.00002  -0.00000   0.00002   0.01764
  57        4ZZ        -0.00006  -0.00004   0.00008  -0.00003   0.00044
  58        4XY        -0.00001  -0.00001  -0.00001   0.00001  -0.00159
  59        4XZ        -0.02153  -0.00145   0.03267   0.00202  -0.00002
  60        4YZ        -0.00144   0.00917   0.00199  -0.00970  -0.00001
  61 5   C  1S          0.00011  -0.00001   0.00001   0.00000   0.03780
  62        2S         -0.00010  -0.00003   0.00008   0.00015  -0.04693
  63        2PX        -0.00021  -0.00019   0.00031   0.00022   0.09094
  64        2PY         0.00000   0.00000  -0.00002  -0.00002   0.05843
  65        2PZ         0.26366   0.16958  -0.26080  -0.16745   0.00032
  66        3S         -0.00051   0.00080  -0.00058  -0.00014  -0.55896
  67        3PX        -0.00075   0.00020   0.00048   0.00046   0.26165
  68        3PY        -0.00015   0.00028  -0.00037  -0.00018   0.16827
  69        3PZ         0.22458   0.14502  -0.47696  -0.30657   0.00033
  70        4XX         0.00000  -0.00003   0.00002  -0.00002   0.00911
  71        4YY         0.00000   0.00000  -0.00000   0.00002  -0.00316
  72        4ZZ         0.00013   0.00001   0.00002   0.00006   0.00045
  73        4XY         0.00000   0.00001  -0.00002   0.00003   0.01545
  74        4XZ         0.00022   0.01403  -0.00261   0.01938   0.00001
  75        4YZ         0.01403  -0.01261   0.01936  -0.02036   0.00002
  76 6   C  1S          0.00011   0.00001  -0.00001   0.00000   0.03781
  77        2S         -0.00013   0.00004  -0.00012   0.00015  -0.04695
  78        2PX        -0.00022   0.00016  -0.00033   0.00019   0.09603
  79        2PY        -0.00000   0.00000  -0.00002   0.00002  -0.04968
  80        2PZ         0.27846  -0.14393   0.27552  -0.14190   0.00033
  81        3S         -0.00031  -0.00081   0.00069  -0.00016  -0.55923
  82        3PX        -0.00069  -0.00026  -0.00049   0.00040   0.27638
  83        3PY         0.00007   0.00022  -0.00033   0.00015  -0.14313
  84        3PZ         0.23725  -0.12312   0.50395  -0.25983   0.00036
  85        4XX        -0.00000   0.00003  -0.00002  -0.00002   0.01149
  86        4YY        -0.00001  -0.00000  -0.00001   0.00002  -0.00554
  87        4ZZ         0.00014  -0.00001  -0.00003   0.00006   0.00045
  88        4XY        -0.00000   0.00002  -0.00002  -0.00004  -0.01387
  89        4XZ         0.00272  -0.01258  -0.00087   0.01739   0.00001
  90        4YZ        -0.01257  -0.01513   0.01734   0.02384  -0.00002
  91 7   H  1S          0.00285   0.00000  -0.00010   0.00073  -0.00019
  92        2S          0.04463   0.00002   0.00013  -0.00093  -0.00099
  93 8   H  1S         -0.00321  -0.00000  -0.00014   0.00097  -0.00025
  94        2S         -0.04497  -0.00002  -0.00035   0.00248  -0.00367
  95 9   H  1S         -0.00000  -0.00007  -0.00001   0.00009   0.03444
  96        2S         -0.00001   0.00001  -0.00003   0.00047   0.78095
  97 10  H  1S          0.00015  -0.00000   0.00000   0.00002   0.03443
  98        2S          0.00014  -0.00013  -0.00014   0.00005   0.78347
  99 11  H  1S          0.00016  -0.00000  -0.00002   0.00002   0.03443
 100        2S          0.00012   0.00013   0.00009   0.00007   0.78375
 101 12  H  1S          0.00001   0.00007  -0.00001   0.00009   0.03444
 102        2S          0.00003  -0.00001  -0.00003   0.00047   0.78096
 103 13  H  1S         -0.00014   0.00000  -0.00000   0.00004   0.03441
 104        2S         -0.00013   0.00013  -0.00015   0.00005   0.78332
 105 14  H  1S         -0.00016   0.00000  -0.00002   0.00004   0.03440
 106        2S         -0.00011  -0.00012   0.00011   0.00007   0.78360
                          26        27        28        29        30
                           V         V         V         V         V
     Eigenvalues --     0.26440   0.29312   0.29325   0.33036   0.33049
   1 1   C  1S          0.00003  -0.00183  -0.03830   0.00373  -0.07944
   2        2S         -0.00164   0.00054   0.01363  -0.00414   0.08985
   3        2PX         0.01723  -0.01609  -0.00869   0.05519  -0.00205
   4        2PY         0.00038   0.00894   0.20256  -0.00209   0.09949
   5        2PZ        -0.00195  -0.00013   0.00004   0.00009   0.00005
   6        3S          0.00202   0.05451   1.13124  -0.07356   1.54094
   7        3PX         0.00845   0.30434  -0.04639   0.42168  -0.01511
   8        3PY        -0.00052   0.04646   0.67882  -0.01452   0.74942
   9        3PZ         0.00019   0.00044   0.00009   0.00059   0.00030
  10        4XX        -0.00042   0.00123   0.00635  -0.00049  -0.00899
  11        4YY        -0.00022  -0.00121  -0.00526   0.00052   0.00790
  12        4ZZ         0.00007  -0.00023  -0.00487   0.00015  -0.00297
  13        4XY         0.00134  -0.01149   0.00119   0.01108  -0.00039
  14        4XZ         0.00435   0.00024   0.00002  -0.00000  -0.00001
  15        4YZ         0.00029  -0.00000  -0.00001   0.00002   0.00000
  16 2   C  1S         -0.00223   0.03229  -0.02092   0.06688   0.04291
  17        2S          0.03992  -0.00952   0.00796  -0.07575  -0.04860
  18        2PX         0.01155  -0.14829   0.08509  -0.08670  -0.02017
  19        2PY        -0.00399  -0.08507   0.07119  -0.02017  -0.06793
  20        2PZ         0.04921   0.00240   0.00015  -0.00012  -0.00012
  21        3S         -0.02310  -0.95458   0.61022  -1.29566  -0.83261
  22        3PX         0.02052  -0.39478   0.45434  -0.65596  -0.14905
  23        3PY         0.00775  -0.45025  -0.01382  -0.15007  -0.51732
  24        3PZ         0.00616  -0.00062   0.00068  -0.00118  -0.00038
  25        4XX         0.00759  -0.00292  -0.00877  -0.00723   0.00572
  26        4YY         0.00668   0.00284   0.00927   0.00819  -0.00516
  27        4ZZ        -0.00189   0.00402  -0.00260   0.00248   0.00161
  28        4XY        -0.00053   0.00779   0.00077  -0.00499  -0.00874
  29        4XZ         0.00047   0.00001  -0.00001  -0.00002  -0.00000
  30        4YZ        -0.00236  -0.00012   0.00000  -0.00001  -0.00001
  31 3   C  1S         -0.00235   0.03416   0.01774  -0.07063   0.03639
  32        2S          0.04214  -0.01018  -0.00680   0.08001  -0.04122
  33        2PX         0.01089  -0.16365  -0.07608   0.09029  -0.01797
  34        2PY         0.00359   0.07646   0.05592  -0.01815   0.06433
  35        2PZ         0.05163   0.00250  -0.00014   0.00014  -0.00011
  36        3S         -0.02464  -1.00834  -0.51670   1.36845  -0.70603
  37        3PX         0.02224  -0.47684  -0.40743   0.68275  -0.13283
  38        3PY        -0.00714   0.40444  -0.09517  -0.13514   0.49071
  39        3PZ         0.00569  -0.00079  -0.00060   0.00123  -0.00033
  40        4XX         0.00781  -0.00078   0.00864   0.00747   0.00495
  41        4YY         0.00725   0.00070  -0.00906  -0.00848  -0.00448
  42        4ZZ        -0.00200   0.00424   0.00220  -0.00262   0.00137
  43        4XY         0.00057  -0.00798   0.00347  -0.00416   0.00941
  44        4XZ         0.00003  -0.00001   0.00001   0.00002  -0.00000
  45        4YZ         0.00212   0.00010   0.00001  -0.00001   0.00001
  46 4   C  1S         -0.00021   0.00180   0.03830   0.00381  -0.07944
  47        2S          0.00271  -0.00046  -0.01363  -0.00439   0.08984
  48        2PX         0.01721  -0.01609  -0.00869  -0.05520   0.00205
  49        2PY         0.00041   0.00891   0.20256   0.00222  -0.09949
  50        2PZ         0.00371   0.00017  -0.00007  -0.00008   0.00005
  51        3S         -0.00037  -0.05417  -1.13126  -0.07268   1.54094
  52        3PX         0.00851   0.30436  -0.04634  -0.42180   0.01506
  53        3PY        -0.00069   0.04627   0.67883   0.01736  -0.74941
  54        3PZ         0.00155   0.00048  -0.00021  -0.00062   0.00034
  55        4XX         0.00061  -0.00122  -0.00635  -0.00046  -0.00899
  56        4YY         0.00032   0.00121   0.00526   0.00053   0.00790
  57        4ZZ        -0.00013   0.00023   0.00487   0.00013  -0.00297
  58        4XY        -0.00133   0.01149  -0.00119   0.01108  -0.00039
  59        4XZ         0.00435   0.00023  -0.00002   0.00000  -0.00001
  60        4YZ         0.00020   0.00003  -0.00001   0.00002  -0.00000
  61 5   C  1S          0.00218  -0.03229   0.02092   0.06680   0.04292
  62        2S         -0.03909   0.00957  -0.00795  -0.07551  -0.04856
  63        2PX         0.01199  -0.14827   0.08507   0.08662   0.02019
  64        2PY        -0.00394  -0.08506   0.07118   0.02012   0.06796
  65        2PZ        -0.04893  -0.00280   0.00009   0.00012  -0.00002
  66        3S          0.02221   0.95451  -0.61004  -1.29670  -0.83283
  67        3PX         0.01992  -0.39482   0.45424   0.65370   0.14912
  68        3PY         0.00797  -0.45019  -0.01386   0.14861   0.51740
  69        3PZ        -0.00677  -0.00052   0.00059   0.00068   0.00003
  70        4XX        -0.00752   0.00293   0.00877  -0.00724   0.00573
  71        4YY        -0.00656  -0.00283  -0.00927   0.00816  -0.00515
  72        4ZZ         0.00189  -0.00402   0.00260   0.00250   0.00161
  73        4XY         0.00049  -0.00780  -0.00077  -0.00498  -0.00874
  74        4XZ         0.00045   0.00004   0.00001  -0.00001   0.00002
  75        4YZ        -0.00246  -0.00014  -0.00000  -0.00001  -0.00002
  76 6   C  1S          0.00232  -0.03416  -0.01774  -0.07056   0.03639
  77        2S         -0.04133   0.01022   0.00679   0.07976  -0.04118
  78        2PX         0.01136  -0.16362  -0.07606  -0.09022   0.01800
  79        2PY         0.00355   0.07646   0.05592   0.01812  -0.06435
  80        2PZ        -0.05151  -0.00295  -0.00007  -0.00012  -0.00001
  81        3S          0.02347   1.00823   0.51655   1.36954  -0.70624
  82        3PX         0.02167  -0.47685  -0.40732  -0.68037   0.13291
  83        3PY        -0.00738   0.40437  -0.09519   0.13392  -0.49077
  84        3PZ        -0.00656  -0.00058  -0.00054  -0.00070   0.00003
  85        4XX        -0.00775   0.00078  -0.00864   0.00748   0.00496
  86        4YY        -0.00713  -0.00070   0.00906  -0.00845  -0.00447
  87        4ZZ         0.00201  -0.00424  -0.00220  -0.00264   0.00137
  88        4XY        -0.00053   0.00799  -0.00347  -0.00415   0.00940
  89        4XZ        -0.00000   0.00001  -0.00001   0.00001   0.00001
  90        4YZ         0.00220   0.00013  -0.00000  -0.00001   0.00002
  91 7   H  1S          0.11494   0.00684  -0.00001   0.00009  -0.00065
  92        2S          1.78158   0.08651  -0.00008   0.00002  -0.00021
  93 8   H  1S         -0.11502  -0.00678   0.00001   0.00007  -0.00048
  94        2S         -1.78155  -0.08655   0.00008  -0.00018   0.00126
  95 9   H  1S         -0.00075  -0.00036  -0.00687  -0.00067   0.01393
  96        2S          0.00146  -0.06370  -1.33692   0.06637  -1.42326
  97 10  H  1S          0.01475   0.00662  -0.00382  -0.01174  -0.00769
  98        2S         -0.04178   1.12785  -0.72968   1.19987   0.76862
  99 11  H  1S          0.01561   0.00701   0.00324   0.01244  -0.00653
 100        2S         -0.04439   1.19294   0.61872  -1.26711   0.65172
 101 12  H  1S          0.00086   0.00037   0.00687  -0.00063   0.01393
 102        2S         -0.00285   0.06330   1.33694   0.06893  -1.42324
 103 13  H  1S         -0.01494  -0.00663   0.00382  -0.01179  -0.00767
 104        2S          0.04153  -1.12785   0.72949   1.19759   0.76882
 105 14  H  1S         -0.01582  -0.00703  -0.00324   0.01247  -0.00652
 106        2S          0.04427  -1.19289  -0.61855  -1.26487   0.65191
                          31        32        33        34        35
                           V         V         V         V         V
     Eigenvalues --     0.33485   0.36408   0.47017   0.47022   0.49422
   1 1   C  1S         -0.04431  -0.00005  -0.07216   0.00345  -0.04758
   2        2S          0.14473   0.00035   0.05138  -0.00244   0.02017
   3        2PX        -0.00280  -0.00033   0.00856  -0.01206  -0.00384
   4        2PY         0.05868   0.00010  -0.19437   0.00874  -0.04967
   5        2PZ        -0.00038   0.23704  -0.00009   0.00000  -0.00005
   6        3S         -0.61234  -0.00152   2.14056  -0.10257   2.07117
   7        3PX        -0.07679  -0.00109   0.12433   0.93629  -0.04597
   8        3PY         1.63444   0.00241  -1.69233   0.12493  -0.25842
   9        3PZ        -0.00076   0.67256  -0.00001   0.00132  -0.00003
  10        4XX        -0.01837   0.00000   0.01013  -0.00298  -0.02834
  11        4YY        -0.00472   0.00003   0.00330   0.00234   0.03466
  12        4ZZ         0.01041  -0.00000  -0.00202   0.00010  -0.00036
  13        4XY        -0.00075  -0.00002   0.00185   0.03073  -0.00396
  14        4XZ        -0.00005  -0.00076   0.00002   0.00001  -0.00005
  15        4YZ        -0.00003   0.01631   0.00002   0.00004   0.00002
  16 2   C  1S          0.04410   0.00007   0.03907   0.06084  -0.02491
  17        2S         -0.14463  -0.00006  -0.02817  -0.04347   0.01048
  18        2PX        -0.04876   0.00023   0.08325   0.14128   0.08263
  19        2PY        -0.03119  -0.00001   0.06526   0.08325  -0.17682
  20        2PZ         0.00030  -0.23668   0.00002   0.00035  -0.00001
  21        3S          0.61791   0.00024  -1.15873  -1.80368   1.08477
  22        3PX        -1.37398  -0.00138   1.20135   0.92589   0.87782
  23        3PY        -0.88256  -0.00082  -0.17189   1.20166  -1.61753
  24        3PZ        -0.00118  -0.67259   0.00175   0.00133   0.00121
  25        4XX         0.00865   0.00006   0.01761  -0.01756   0.02228
  26        4YY         0.01446   0.00004  -0.02495   0.00628  -0.01898
  27        4ZZ        -0.01044  -0.00003   0.00108   0.00168  -0.00019
  28        4XY        -0.00722   0.00000  -0.00883   0.01009   0.01014
  29        4XZ         0.00005  -0.01380   0.00002  -0.00004   0.00005
  30        4YZ         0.00000  -0.00880  -0.00001   0.00002   0.00001
  31 3   C  1S         -0.04408  -0.00007   0.03310  -0.06429   0.02268
  32        2S          0.14461   0.00012  -0.02390   0.04600  -0.00956
  33        2PX         0.05137  -0.00023   0.07443  -0.15625  -0.07060
  34        2PY        -0.02646   0.00002  -0.05030   0.07480  -0.18812
  35        2PZ        -0.00031   0.23674   0.00001  -0.00034  -0.00000
  36        3S         -0.61845  -0.00029  -0.98162   1.90596  -0.98772
  37        3PX         1.45017   0.00142   1.07618  -1.14186  -0.76027
  38        3PY        -0.75011  -0.00062   0.38808   1.07782  -1.73871
  39        3PZ         0.00128   0.67258   0.00156  -0.00163  -0.00105
  40        4XX        -0.00754  -0.00005   0.01724   0.01415  -0.02294
  41        4YY        -0.01557  -0.00003  -0.02347  -0.00221   0.01993
  42        4ZZ         0.01044   0.00003   0.00091  -0.00177   0.00017
  43        4XY        -0.00648   0.00000   0.01437   0.01116   0.00381
  44        4XZ        -0.00005   0.01456   0.00002   0.00003  -0.00005
  45        4YZ         0.00000  -0.00748   0.00002   0.00002   0.00000
  46 4   C  1S          0.04431   0.00005  -0.07216   0.00345   0.04758
  47        2S         -0.14473  -0.00035   0.05138  -0.00243  -0.02017
  48        2PX        -0.00271   0.00034  -0.00850   0.01206  -0.00385
  49        2PY         0.05867   0.00011   0.19437  -0.00874  -0.04966
  50        2PZ         0.00037  -0.23704  -0.00012   0.00004   0.00004
  51        3S          0.61247   0.00152   2.14061  -0.10208  -2.07114
  52        3PX        -0.07606   0.00081  -0.12388  -0.93634  -0.04634
  53        3PY         1.63441   0.00241   1.69236  -0.12491  -0.25840
  54        3PZ         0.00056  -0.67255  -0.00035  -0.00131  -0.00010
  55        4XX         0.01838  -0.00000   0.01013  -0.00299   0.02834
  56        4YY         0.00471  -0.00003   0.00330   0.00235  -0.03466
  57        4ZZ        -0.01041  -0.00000  -0.00202   0.00010   0.00036
  58        4XY         0.00073  -0.00002   0.00185   0.03073   0.00397
  59        4XZ         0.00005  -0.00076   0.00002  -0.00002   0.00004
  60        4YZ        -0.00003   0.01631  -0.00001   0.00004   0.00003
  61 5   C  1S         -0.04422  -0.00007   0.03906   0.06083   0.02493
  62        2S          0.14476   0.00007  -0.02816  -0.04346  -0.01049
  63        2PX        -0.04890  -0.00044  -0.08324  -0.14130   0.08259
  64        2PY        -0.03122  -0.00001  -0.06526  -0.08320  -0.17684
  65        2PZ        -0.00043   0.23670  -0.00020  -0.00005   0.00024
  66        3S         -0.61569  -0.00020  -1.15831  -1.80337  -1.08530
  67        3PX        -1.37508  -0.00330  -1.20121  -0.92612   0.87750
  68        3PY        -0.88280  -0.00082   0.17173  -1.20120  -1.61774
  69        3PZ        -0.00268   0.67262  -0.00164  -0.00127   0.00125
  70        4XX        -0.00864   0.00000   0.01761  -0.01756  -0.02228
  71        4YY        -0.01447  -0.00004  -0.02494   0.00627   0.01898
  72        4ZZ         0.01044  -0.00004   0.00108   0.00168   0.00019
  73        4XY         0.00723   0.00002  -0.00882   0.01009  -0.01013
  74        4XZ        -0.00001  -0.01379   0.00003  -0.00002  -0.00003
  75        4YZ         0.00002  -0.00881  -0.00001   0.00001  -0.00002
  76 6   C  1S          0.04421   0.00007   0.03309  -0.06428  -0.02269
  77        2S         -0.14474  -0.00012  -0.02389   0.04599   0.00957
  78        2PX         0.05152   0.00044  -0.07441   0.15627  -0.07056
  79        2PY        -0.02649   0.00001   0.05031  -0.07476  -0.18813
  80        2PZ         0.00045  -0.23676  -0.00019   0.00009  -0.00020
  81        3S          0.61610   0.00025  -0.98126   1.90557   0.98821
  82        3PX         1.45131   0.00334  -1.07601   1.14201  -0.75998
  83        3PY        -0.75033  -0.00061  -0.38782  -1.07737  -1.73891
  84        3PZ         0.00279  -0.67260  -0.00148   0.00158  -0.00110
  85        4XX         0.00753  -0.00002   0.01724   0.01415   0.02295
  86        4YY         0.01559   0.00003  -0.02347  -0.00221  -0.01993
  87        4ZZ        -0.01044   0.00004   0.00092  -0.00177  -0.00017
  88        4XY         0.00649   0.00002   0.01436   0.01116  -0.00381
  89        4XZ         0.00001   0.01456   0.00003   0.00002   0.00003
  90        4YZ         0.00002  -0.00748   0.00002   0.00001  -0.00001
  91 7   H  1S         -0.00002   0.00007  -0.00087   0.00012   0.00005
  92        2S         -0.00019   0.00127   0.00083  -0.00013  -0.00025
  93 8   H  1S          0.00002  -0.00007  -0.00078   0.00011  -0.00005
  94        2S          0.00020  -0.00126   0.00097  -0.00013   0.00024
  95 9   H  1S         -0.02354   0.00007   0.01127  -0.00055   0.13666
  96        2S         -1.40187  -0.00218   1.01432  -0.04839  -0.08728
  97 10  H  1S          0.02351   0.00003  -0.00623  -0.00948   0.07149
  98        2S          1.39560   0.00230  -0.54910  -0.85338  -0.04549
  99 11  H  1S         -0.02351  -0.00000  -0.00529   0.01004  -0.06510
 100        2S         -1.39496  -0.00225  -0.46518   0.90178   0.04139
 101 12  H  1S          0.02354  -0.00007   0.01127  -0.00051  -0.13666
 102        2S          1.40176   0.00218   1.01432  -0.04843   0.08729
 103 13  H  1S         -0.02349  -0.00002  -0.00620  -0.00947  -0.07149
 104        2S         -1.39763  -0.00234  -0.54913  -0.85339   0.04528
 105 14  H  1S          0.02349   0.00000  -0.00526   0.01002   0.06511
 106        2S          1.39710   0.00230  -0.46521   0.90180  -0.04120
                          36        37        38        39        40
                           V         V         V         V         V
     Eigenvalues --     0.49423   0.66091   0.66389   0.74409   0.77424
   1 1   C  1S         -0.00128   0.00000   0.00380   0.00031  -0.00000
   2        2S          0.00059   0.00003   0.28836   0.26775  -0.00000
   3        2PX         0.22653  -0.32838   0.00292   0.00900   0.21787
   4        2PY         0.00929  -0.01537  -0.08173  -0.18357   0.01020
   5        2PZ         0.00036  -0.00043   0.19958  -0.24171   0.00031
   6        3S          0.05560  -0.00008  -0.32524  -0.22477   0.00012
   7        3PX         2.15038   0.50194  -0.00082  -0.00749   3.91032
   8        3PY         0.09394   0.02346   0.00946   0.15504   0.18293
   9        3PZ         0.00301   0.00068  -0.12536   0.16704   0.00552
  10        4XX        -0.00241  -0.00393   0.04858   0.07402  -0.00068
  11        4YY         0.00259   0.00394   0.02523  -0.02852   0.00068
  12        4ZZ        -0.00001  -0.00000  -0.00263   0.00626   0.00000
  13        4XY         0.02019   0.04844   0.00121   0.00555   0.00833
  14        4XZ        -0.00005  -0.00001   0.00039  -0.00044  -0.00001
  15        4YZ         0.00003   0.00007  -0.00760   0.01150   0.00001
  16 2   C  1S          0.04053   0.00004   0.00403   0.00019   0.00000
  17        2S         -0.01772   0.00000   0.28653   0.26798  -0.00005
  18        2PX         0.09936   0.17781  -0.06699  -0.15506   0.11783
  19        2PY        -0.07686  -0.27702  -0.04372  -0.09909  -0.18377
  20        2PZ        -0.00031   0.00014   0.19839  -0.24255   0.00010
[...]
  98        2S          0.00027   0.00014   0.00164   0.00002  -0.00001
  99 11  H  1S          0.00001   0.00002   0.00000   0.00000   0.00000
 100        2S          0.00017  -0.00001  -0.00000  -0.00000   0.00000
 101 12  H  1S          0.00001   0.00004   0.00006   0.00000  -0.00000
 102        2S          0.00027   0.00122   0.00043   0.00015  -0.00002
 103 13  H  1S         -0.00081   0.00105  -0.00613   0.00013  -0.00002
 104        2S         -0.00273   0.00014  -0.01269   0.00001  -0.00044
 105 14  H  1S          0.03438   0.06023   0.00868   0.00768   0.00697
 106        2S          0.01675   0.04542   0.00654   0.00580   0.00486
                          86        87        88        89        90
  86        4YY         0.00144
  87        4ZZ        -0.00013   0.00047
  88        4XY        -0.00000  -0.00000   0.00192
  89        4XZ        -0.00000   0.00000   0.00000   0.00088
  90        4YZ        -0.00000  -0.00000   0.00000  -0.00000   0.00103
  91 7   H  1S         -0.00000   0.00000  -0.00000   0.00000  -0.00000
  92        2S         -0.00000   0.00000   0.00000  -0.00000   0.00000
  93 8   H  1S         -0.00000   0.00000  -0.00000   0.00000  -0.00000
  94        2S         -0.00000  -0.00000  -0.00000   0.00000  -0.00000
  95 9   H  1S          0.00004   0.00000   0.00005  -0.00000   0.00001
  96        2S         -0.00009   0.00004   0.00018  -0.00000   0.00002
  97 10  H  1S         -0.00000  -0.00000  -0.00000  -0.00000  -0.00000
  98        2S          0.00001  -0.00000  -0.00001  -0.00000  -0.00000
  99 11  H  1S         -0.00000  -0.00000   0.00000   0.00000   0.00000
 100        2S         -0.00000   0.00000   0.00000   0.00000   0.00000
 101 12  H  1S          0.00000  -0.00000   0.00000  -0.00000   0.00000
 102        2S          0.00000  -0.00000   0.00001  -0.00000   0.00000
 103 13  H  1S          0.00010  -0.00000   0.00001  -0.00000   0.00000
 104        2S          0.00072  -0.00002  -0.00007  -0.00001  -0.00001
 105 14  H  1S         -0.00100  -0.00035   0.00214   0.00158   0.00027
 106        2S         -0.00219   0.00002   0.00035   0.00021   0.00005
                          91        92        93        94        95
  91 7   H  1S          0.21517
  92        2S          0.11282   0.13947
  93 8   H  1S          0.10032   0.08815   0.21680
  94        2S          0.09323   0.12247   0.12020   0.15514
  95 9   H  1S         -0.00000   0.00000  -0.00000  -0.00000   0.20999
  96        2S          0.00000   0.00001   0.00000  -0.00000   0.08655
  97 10  H  1S         -0.00000  -0.00000  -0.00000  -0.00000  -0.00001
  98        2S         -0.00000  -0.00000  -0.00000  -0.00000  -0.00035
  99 11  H  1S          0.00000  -0.00000   0.00000   0.00000  -0.00000
 100        2S         -0.00000  -0.00000  -0.00000  -0.00000  -0.00000
 101 12  H  1S          0.00000  -0.00000   0.00000   0.00000   0.00000
 102        2S         -0.00000  -0.00000  -0.00000  -0.00000   0.00000
 103 13  H  1S         -0.00000   0.00000  -0.00000  -0.00000  -0.00000
 104        2S          0.00000   0.00000   0.00000  -0.00000  -0.00000
 105 14  H  1S         -0.00000   0.00000  -0.00000  -0.00000  -0.00001
 106        2S          0.00000   0.00002   0.00000  -0.00000  -0.00035
                          96        97        98        99       100
  96        2S          0.09325
  97 10  H  1S         -0.00035   0.21002
  98        2S         -0.00107   0.08666   0.09346
  99 11  H  1S         -0.00000  -0.00001  -0.00035   0.21004
 100        2S         -0.00011  -0.00035  -0.00108   0.08669   0.09354
 101 12  H  1S          0.00000  -0.00000  -0.00000  -0.00001  -0.00035
 102        2S          0.00001  -0.00000  -0.00011  -0.00035  -0.00107
 103 13  H  1S         -0.00000   0.00000   0.00000  -0.00000  -0.00000
 104        2S         -0.00011   0.00000   0.00001  -0.00000  -0.00011
 105 14  H  1S         -0.00035  -0.00000  -0.00000   0.00000   0.00000
 106        2S         -0.00107  -0.00000  -0.00011   0.00000   0.00001
                         101       102       103       104       105
 101 12  H  1S          0.21003
 102        2S          0.08668   0.09351
 103 13  H  1S         -0.00001  -0.00035   0.21001
 104        2S         -0.00035  -0.00107   0.08662   0.09339
 105 14  H  1S         -0.00000  -0.00000  -0.00001  -0.00035   0.20998
 106        2S         -0.00000  -0.00011  -0.00035  -0.00107   0.08658
                         106
 106        2S          0.09334
     Gross orbital populations:
                           1
   1 1   C  1S          1.99664
   2        2S          0.67077
   3        2PX         0.71641
   4        2PY         0.74461
   5        2PZ         0.54334
   6        3S          0.48420
   7        3PX         0.29407
   8        3PY         0.24207
   9        3PZ         0.44862
  10        4XX         0.02026
  11        4YY         0.02371
  12        4ZZ        -0.01411
  13        4XY         0.01672
  14        4XZ         0.00572
  15        4YZ         0.00693
  16 2   C  1S          1.99663
  17        2S          0.67074
  18        2PX         0.72602
  19        2PY         0.73371
  20        2PZ         0.54491
  21        3S          0.48367
  22        3PX         0.20607
  23        3PY         0.34098
  24        3PZ         0.43732
  25        4XX         0.01639
  26        4YY         0.03245
  27        4ZZ        -0.01417
  28        4XY         0.01310
  29        4XZ         0.00717
  30        4YZ         0.00431
  31 3   C  1S          1.99663
  32        2S          0.67078
  33        2PX         0.71101
  34        2PY         0.75075
  35        2PZ         0.54278
  36        3S          0.48370
  37        3PX         0.34260
  38        3PY         0.18732
  39        3PZ         0.45434
  40        4XX         0.02430
  41        4YY         0.02118
  42        4ZZ        -0.01407
  43        4XY         0.01462
  44        4XZ         0.00536
  45        4YZ         0.00786
  46 4   C  1S          1.99663
  47        2S          0.67075
  48        2PX         0.71642
  49        2PY         0.74461
  50        2PZ         0.54365
  51        3S          0.48365
  52        3PX         0.29369
  53        3PY         0.24234
  54        3PZ         0.44827
  55        4XX         0.02029
  56        4YY         0.02371
  57        4ZZ        -0.01412
  58        4XY         0.01673
  59        4XZ         0.00572
  60        4YZ         0.00692
  61 5   C  1S          1.99663
  62        2S          0.67075
  63        2PX         0.72605
  64        2PY         0.73362
  65        2PZ         0.54473
  66        3S          0.48381
  67        3PX         0.20629
  68        3PY         0.34082
  69        3PZ         0.43764
  70        4XX         0.01637
  71        4YY         0.03244
  72        4ZZ        -0.01417
  73        4XY         0.01311
  74        4XZ         0.00718
  75        4YZ         0.00430
  76 6   C  1S          1.99664
  77        2S          0.67066
  78        2PX         0.71076
  79        2PY         0.75077
  80        2PZ         0.54273
  81        3S          0.48507
  82        3PX         0.34317
  83        3PY         0.18744
  84        3PZ         0.45459
  85        4XX         0.02420
  86        4YY         0.02117
  87        4ZZ        -0.01405
  88        4XY         0.01463
  89        4XZ         0.00536
  90        4YZ         0.00788
  91 7   H  1S          0.52149
  92        2S          0.46550
  93 8   H  1S          0.52547
  94        2S          0.49045
  95 9   H  1S          0.52966
  96        2S          0.26984
  97 10  H  1S          0.52972
  98        2S          0.27020
  99 11  H  1S          0.52975
 100        2S          0.27029
 101 12  H  1S          0.52973
 102        2S          0.27026
 103 13  H  1S          0.52969
 104        2S          0.27009
 105 14  H  1S          0.52965
 106        2S          0.26995
          Condensed to atoms (all electrons):
               1          2          3          4          5          6
     1  C    4.884829   0.556504  -0.045490  -0.033778  -0.045747   0.556072
     2  C    0.556504   4.883670   0.557068  -0.045423  -0.033773  -0.045733
     3  C   -0.045490   0.557068   4.883534   0.556546  -0.045509  -0.033871
     4  C   -0.033778  -0.045423   0.556546   4.883564   0.557077  -0.045587
     5  C   -0.045747  -0.033773  -0.045509   0.557077   4.884342   0.556098
     6  C    0.556072  -0.045733  -0.033871  -0.045587   0.556098   4.886186
     7  H    0.000926   0.000026  -0.000054  -0.000049   0.000257   0.001386
     8  H   -0.000210  -0.000005   0.000011   0.000007  -0.000042  -0.000349
     9  H    0.383944  -0.031149   0.002610   0.000186   0.002607  -0.031276
    10  H   -0.031268   0.383950  -0.031200   0.002612   0.000187   0.002617
    11  H    0.002618  -0.031250   0.383947  -0.031260   0.002617   0.000188
    12  H    0.000187   0.002612  -0.031226   0.383941  -0.031258   0.002620
    13  H    0.002605   0.000187   0.002614  -0.031174   0.383955  -0.031274
    14  H   -0.031247   0.002611   0.000187   0.002612  -0.031243   0.383938
               7          8          9         10         11         12
     1  C    0.000926  -0.000210   0.383944  -0.031268   0.002618   0.000187
     2  C    0.000026  -0.000005  -0.031149   0.383950  -0.031250   0.002612
     3  C   -0.000054   0.000011   0.002610  -0.031200   0.383947  -0.031226
     4  C   -0.000049   0.000007   0.000186   0.002612  -0.031260   0.383941
     5  C    0.000257  -0.000042   0.002607   0.000187   0.002617  -0.031258
     6  C    0.001386  -0.000349  -0.031276   0.002617   0.000188   0.002620
     7  H    0.580284   0.404178   0.000011  -0.000000  -0.000000  -0.000000
     8  H    0.404178   0.612328  -0.000001  -0.000000  -0.000000  -0.000000
     9  H    0.000011  -0.000001   0.476333  -0.001774  -0.000115   0.000011
    10  H   -0.000000  -0.000000  -0.001774   0.476792  -0.001784  -0.000115
    11  H   -0.000000  -0.000000  -0.000115  -0.001784   0.476961  -0.001782
    12  H   -0.000000  -0.000000   0.000011  -0.000115  -0.001782   0.476897
    13  H    0.000001  -0.000000  -0.000115   0.000011  -0.000115  -0.001779
    14  H    0.000025  -0.000002  -0.001771  -0.000115   0.000011  -0.000115
              13         14
     1  C    0.002605  -0.031247
     2  C    0.000187   0.002611
     3  C    0.002614   0.000187
     4  C   -0.031174   0.002612
     5  C    0.383955  -0.031243
     6  C   -0.031274   0.383938
     7  H    0.000001   0.000025
     8  H   -0.000000  -0.000002
     9  H   -0.000115  -0.001771
    10  H    0.000011  -0.000115
    11  H   -0.000115   0.000011
    12  H   -0.001779  -0.000115
    13  H    0.476641  -0.001772
    14  H   -0.001772   0.476480
 Mulliken charges:
               1
     1  C   -0.199946
     2  C   -0.199295
     3  C   -0.199168
     4  C   -0.199274
     5  C   -0.199569
     6  C   -0.201016
     7  H    0.013009
     8  H   -0.015917
     9  H    0.200499
    10  H    0.200088
    11  H    0.199965
    12  H    0.200007
    13  H    0.200217
    14  H    0.200402
 Sum of Mulliken charges =  -0.00000
 Mulliken charges with hydrogens summed into heavy atoms:
               1
     1  C    0.000553
     2  C    0.000793
     3  C    0.000796
     4  C    0.000732
     5  C    0.000649
     6  C   -0.003522
 Electronic spatial extent (au):  <R**2>=            576.8783
 Charge=             -0.0000 electrons
 Dipole moment (field-independent basis, Debye):
    X=              0.0658    Y=             -0.0013    Z=             -0.0796  Tot=              0.1033
 Quadrupole moment (field-independent basis, Debye-Ang):
   XX=            -34.4088   YY=            -33.3604   ZZ=            -40.7883
   XY=             -0.0147   XZ=              2.7133   YZ=              0.0238
 Traceless Quadrupole moment (field-independent basis, Debye-Ang):
   XX=              1.7770   YY=              2.8254   ZZ=             -4.6024
   XY=             -0.0147   XZ=              2.7133   YZ=              0.0238
 Octapole moment (field-independent basis, Debye-Ang**2):
  XXX=              3.8563  YYY=              0.0106  ZZZ=             -0.2335  XYY=              1.4696
  XXY=              0.0910  XXZ=             -0.2339  XZZ=             -1.1413  YZZ=              0.1555
  YYZ=             -1.5718  XYZ=             -0.1178
 Hexadecapole moment (field-independent basis, Debye-Ang**3):
 XXXX=           -337.5362 YYYY=           -264.1962 ZZZZ=           -172.0562 XXXY=             -0.4145
 XXXZ=             18.9475 YYYX=             -0.0307 YYYZ=              0.0294 ZZZX=              0.6874
 ZZZY=              0.7321 XXYY=           -100.8603 XXZZ=            -83.4803 YYZZ=            -82.2859
 XXYZ=              0.4885 YYXZ=              8.3743 ZZXY=             -0.5970
 N-N= 2.157086879303D+02 E-N=-9.706100052725D+02  KE= 2.316439253252D+02
 Orbital energies and kinetic energies (alpha):
                                 1                 2
   1         O               -11.230382         15.986784
   2         O               -11.229753         15.993288
   3         O               -11.229739         15.993812
   4         O               -11.228567         16.010429
   5         O               -11.228465         16.009856
   6         O               -11.227868         16.020241
   7         O                -1.148938          1.462383
   8         O                -1.012231          1.573658
   9         O                -1.012129          1.573406
  10         O                -0.820833          1.438399
  11         O                -0.820795          1.438328
  12         O                -0.708048          0.928773
  13         O                -0.640599          1.262079
  14         O                -0.614832          1.451105
  15         O                -0.590342          0.570838
  16         O                -0.585136          1.192728
  17         O                -0.584975          1.190842
  18         O                -0.498674          0.878639
  19         O                -0.490395          1.384591
  20         O                -0.490352          1.384767
  21         O                -0.331503          1.038691
  22         O                -0.331434          1.038327
  23         V                 0.148416          1.171080
  24         V                 0.148891          1.177774
  25         V                 0.234843          0.803270
  26         V                 0.250001          0.485789
  27         V                 0.293988          0.821231
  28         V                 0.294277          0.818985
  29         V                 0.333152          0.996726
  30         V                 0.333269          0.996512
  31         V                 0.338207          0.898433
  32         V                 0.370482          1.379622
  33         V                 0.474407          1.286543
  34         V                 0.474485          1.286156
  35         V                 0.500482          1.333832
  36         V                 0.500528          1.333839
  37         V                 0.656571          1.449285
  38         V                 0.723997          1.598036
  39         V                 0.742442          1.708370
  40         V                 0.775349          1.738158
  41         V                 0.784068          1.532996
  42         V                 0.792329          2.840692
  43         V                 0.799993          1.691146
  44         V                 0.830479          2.098422
  45         V                 0.838999          1.929770
  46         V                 0.844010          1.818279
  47         V                 0.852651          2.490399
  48         V                 0.853431          2.549562
  49         V                 0.874440          1.969769
  50         V                 0.914243          2.359893
  51         V                 0.919189          2.328644
  52         V                 0.997594          2.505950
  53         V                 1.117924          2.857512
  54         V                 1.118028          2.857583
  55         V                 1.121408          2.538154
  56         V                 1.121480          2.537622
  57         V                 1.128560          2.971164
  58         V                 1.191149          2.729816
  59         V                 1.191305          2.725235
  60         V                 1.209137          2.721636
  61         V                 1.255243          3.305374
  62         V                 1.303403          2.127467
  63         V                 1.304044          2.123444
  64         V                 1.393949          2.357670
  65         V                 1.394299          2.359133
  66         V                 1.457802          2.614836
  67         V                 1.473244          2.624712
  68         V                 1.518127          2.401431
  69         V                 1.657714          2.530738
  70         V                 1.705824          2.550358
  71         V                 1.706071          2.550739
  72         V                 1.769680          2.686600
  73         V                 1.769842          2.686652
  74         V                 1.795684          2.702911
  75         V                 1.796159          2.704602
  76         V                 2.052329          2.937040
  77         V                 2.099449          3.179266
  78         V                 2.175214          3.071389
  79         V                 2.182494          3.253939
  80         V                 2.320715          3.514620
  81         V                 2.321783          3.518411
  82         V                 2.410194          3.701268
  83         V                 2.410889          3.702516
  84         V                 2.474057          3.353151
  85         V                 2.474552          3.354532
  86         V                 2.487424          3.607344
  87         V                 2.489846          3.606495
  88         V                 2.647222          3.578049
  89         V                 2.647895          3.577915
  90         V                 2.658656          3.555087
  91         V                 2.889437          4.128450
  92         V                 2.889834          4.127457
  93         V                 3.020017          3.948972
  94         V                 3.094407          4.630257
  95         V                 3.094524          4.630499
  96         V                 3.096988          4.502107
  97         V                 3.097095          4.501471
  98         V                 3.097891          4.254169
  99         V                 3.404545          5.040979
 100         V                 3.827738          5.251233
 101         V                 4.528355         10.195567
 102         V                 4.547869         10.212775
 103         V                 4.552345         10.217799
 104         V                 4.759953         10.151931
 105         V                 4.760930         10.153557
 106         V                 5.106519         10.439988
 Total kinetic energy from orbitals= 2.316439253252D+02


 WE'RE IN THE POSITION OF A VISITOR FROM ANOTHER
 DIMENSION WHO COMES TO EARTH AND SEES A CHESS MATCH.
 ASSUMING HE KNOWS IT'S A GAME, HE'S GOT TWO PROBLEMS:
 FIRST, FIGURE OUT THE RULES, AND SECOND, FIGURE OUT HOW TO WIN.
 NINETY PERCENT OF SCIENCE (INCLUDING VIRTUALLY ALL OF CHEMISRY)
 IS IN THAT SECOND CATEGORY.  THEY'RE TRYING TO APPLY
 THE LAWS THAT ARE ALREADY KNOWN.

                     -- SHELDON GLASHOW, 1979
 Error termination request processed by link 9999.
 Error termination via Lnk1e in /usr/local/packages/gaussian/g16/l9999.exe at Thu Oct 29 18:19:54 2020.
 Job cpu time:       0 days  0 hours  5 minutes 42.5 seconds.
 Elapsed time:       0 days  0 hours  5 minutes 49.9 seconds.
 File lengths (MBytes):  RWF=     22 Int=      0 D2E=      0 Chk=      3 Scr=      2
