 Entering Gaussian System, Link 0=g16
 Input=benzen21.com
 Output=benzen21.log
 Initial command:
 /usr/local/packages/gaussian/g16/l1.exe "/scratch/Gau-14249.inp" -scrdir="/scratch/"
 Entering Link 1 = /usr/local/packages/gaussian/g16/l1.exe PID=     14250.
  
 Copyright (c) 1988,1990,1992,1993,1995,1998,2003,2009,2016,
            Gaussian, Inc.  All Rights Reserved.
  
 This is part of the Gaussian(R) 16 program.  It is based on
 the Gaussian(R) 09 system (copyright 2009, Gaussian, Inc.),
 the Gaussian(R) 03 system (copyright 2003, Gaussian, Inc.),
 the Gaussian(R) 98 system (copyright 1998, Gaussian, Inc.),
 the Gaussian(R) 94 system (copyright 1995, Gaussian, Inc.),
 the Gaussian 92(TM) system (copyright 1992, Gaussian, Inc.),
 the Gaussian 90(TM) system (copyright 1990, Gaussian, Inc.),
 the Gaussian 88(TM) system (copyright 1988, Gaussian, Inc.),
 the Gaussian 86(TM) system (copyright 1986, Carnegie Mellon
 University), and the Gaussian 82(TM) system (copyright 1983,
 Carnegie Mellon University). Gaussian is a federally registered
 trademark of Gaussian, Inc.
  
 This software contains proprietary and confidential information,
 including trade secrets, belonging to Gaussian, Inc.
  
 This software is provided under written license and may be
 used, copied, transmitted, or stored only in accord with that
 written license.
  
 The following legend is applicable only to US Government
 contracts under FAR:
  
                    RESTRICTED RIGHTS LEGEND
  
 Use, reproduction and disclosure by the US Government is
 subject to restrictions as set forth in subparagraphs (a)
 and (c) of the Commercial Computer Software - Restricted
 Rights clause in FAR 52.227-19.
  
 Gaussian, Inc.
 340 Quinnipiac St., Bldg. 40, Wallingford CT 06492
  
  
 ---------------------------------------------------------------
 Warning -- This program may not be used in any manner that
 competes with the business of Gaussian, Inc. or will provide
 assistance to any competitor of Gaussian, Inc.  The licensee
 of this program is prohibited from giving any competitor of
 Gaussian, Inc. access to this program.  By using this program,
 the user acknowledges that Gaussian, Inc. is engaged in the
 business of creating and licensing software in the field of
 computational chemistry and represents and warrants to the
 licensee that it is not a competitor of Gaussian, Inc. and that
 it will not use this program in any manner prohibited above.
 ---------------------------------------------------------------
  

 Cite this work as:
 Gaussian 16, Revision A.03,
 M. J. Frisch, G. W. Trucks, H. B. Schlegel, G. E. Scuseria, 
 M. A. Robb, J. R. Cheeseman, G. Scalmani, V. Barone, 
 G. A. Petersson, H. Nakatsuji, X. Li, M. Caricato, A. V. Marenich, 
 J. Bloino, B. G. Janesko, R. Gomperts, B. Mennucci, H. P. Hratchian, 
 J. V. Ortiz, A. F. Izmaylov, J. L. Sonnenberg, D. Williams-Young, 
 F. Ding, F. Lipparini, F. Egidi, J. Goings, B. Peng, A. Petrone, 
 T. Henderson, D. Ranasinghe, V. G. Zakrzewski, J. Gao, N. Rega, 
 G. Zheng, W. Liang, M. Hada, M. Ehara, K. Toyota, R. Fukuda, 
 J. Hasegawa, M. Ishida, T. Nakajima, Y. Honda, O. Kitao, H. Nakai, 
 T. Vreven, K. Throssell, J. A. Montgomery, Jr., J. E. Peralta, 
 F. Ogliaro, M. J. Bearpark, J. J. Heyd, E. N. Brothers, K. N. Kudin, 
 V. N. Staroverov, T. A. Keith, R. Kobayashi, J. Normand, 
 K. Raghavachari, A. P. Rendell, J. C. Burant, S. S. Iyengar, 
 J. Tomasi, M. Cossi, J. M. Millam, M. Klene, C. Adamo, R. Cammi, 
 J. W. Ochterski, R. L. Martin, K. Morokuma, O. Farkas, 
 J. B. Foresman, and D. J. Fox, Gaussian, Inc., Wallingford CT, 2016.
 
 ******************************************
 Gaussian 16:  ES64L-G16RevA.03 25-Dec-2016
                27-Oct-2020 
 ******************************************
 --------------------------------
 # RHF/6-31G(d) Freq Pop=full Opt
 --------------------------------
 1/18=20,19=15,38=1/1,3;
 2/9=110,12=2,17=6,18=5,40=1/2;
 3/5=1,6=6,7=1,11=1,25=1,30=1,71=1,116=1/1,2,3;
 4//1;
 5/5=2,38=5/2;
 6/7=3,28=1/1;
 7//1,2,3,16;
 1/18=20,19=15/3(2);
 2/9=110/2;
 99//99;
 2/9=110/2;
 3/5=1,6=6,7=1,11=1,25=1,30=1,71=1,116=1/1,2,3;
 4/5=5,16=3,69=1/1;
 5/5=2,38=5/2;
 7//1,2,3,16;
 1/18=20,19=15/3(-5);
 2/9=110/2;
 6/7=3,19=2,28=1/1;
 99/9=1/99;
 --------
 Benzen21
 --------
 Symbolic Z-matrix:
 Charge =  0 Multiplicity = 1
 C                     1.20168   0.39254  -0.06544 
 C                     0.32614   0.51456  -1.71715 
 C                    -1.5466    0.59318  -1.77826 
 C                    -2.53489   0.54947  -0.18847 
 C                    -1.65579   0.42771   1.45559 
 C                     0.20853   0.34939   1.51747 
 H                    -0.64313   1.04529  -0.10232 
 H                    -0.68936  -0.10273  -0.16262 
 H                     2.28099   0.3465   -0.01644 
 H                     0.90483   0.5393   -2.63195 
 H                    -2.06257   0.6638   -2.7272 
 H                    -3.61457   0.59412  -0.21079 
 H                    -2.22413   0.4024    2.37324 
 H                     0.70878   0.27911   2.472 
 
 Add virtual bond connecting atoms H8         and H7         Dist= 2.17D+00.
 Add virtual bond connecting atoms C6         and C5         Dist= 3.53D+00.
 Add virtual bond connecting atoms C5         and C4         Dist= 3.53D+00.
 Add virtual bond connecting atoms C6         and C1         Dist= 3.53D+00.
 Add virtual bond connecting atoms C4         and C3         Dist= 3.54D+00.
 Add virtual bond connecting atoms C2         and C1         Dist= 3.54D+00.
 Add virtual bond connecting atoms C2         and C3         Dist= 3.54D+00.
 Add virtual bond connecting atoms H7         and C1         Dist= 3.70D+00.
 Add virtual bond connecting atoms H7         and C2         Dist= 3.70D+00.
 Add virtual bond connecting atoms H7         and C3         Dist= 3.70D+00.
 Add virtual bond connecting atoms H7         and C4         Dist= 3.70D+00.
 Add virtual bond connecting atoms H7         and C5         Dist= 3.70D+00.

 GradGradGradGradGradGradGradGradGradGradGradGradGradGradGradGradGradGrad
 Berny optimization.
 Initialization pass.
                           ----------------------------
                           !    Initial Parameters    !
                           ! (Angstroms and Degrees)  !
 --------------------------                            --------------------------
 ! Name  Definition              Value          Derivative Info.                !
 --------------------------------------------------------------------------------
 ! R1    R(1,2)                  1.8734         estimate D2E/DX2                !
 ! R2    R(1,6)                  1.8692         estimate D2E/DX2                !
 ! R3    R(1,7)                  1.9572         estimate D2E/DX2                !
 ! R4    R(1,9)                  1.0814         estimate D2E/DX2                !
 ! R5    R(2,3)                  1.8754         estimate D2E/DX2                !
 ! R6    R(2,7)                  1.9567         estimate D2E/DX2                !
 ! R7    R(2,10)                 1.0828         estimate D2E/DX2                !
 ! R8    R(3,4)                  1.8724         estimate D2E/DX2                !
 ! R9    R(3,7)                  1.9569         estimate D2E/DX2                !
 ! R10   R(3,11)                 1.0825         estimate D2E/DX2                !
 ! R11   R(4,5)                  1.8683         estimate D2E/DX2                !
 ! R12   R(4,7)                  1.9576         estimate D2E/DX2                !
 ! R13   R(4,12)                 1.0808         estimate D2E/DX2                !
 ! R14   R(5,6)                  1.867          estimate D2E/DX2                !
 ! R15   R(5,7)                  1.958          estimate D2E/DX2                !
 ! R16   R(5,13)                 1.0797         estimate D2E/DX2                !
 ! R17   R(6,14)                 1.08           estimate D2E/DX2                !
 ! R18   R(7,8)                  1.1505         estimate D2E/DX2                !
 ! A1    A(2,1,6)              119.9881         estimate D2E/DX2                !
 ! A2    A(2,1,9)              120.6087         estimate D2E/DX2                !
 ! A3    A(6,1,7)               61.5003         estimate D2E/DX2                !
 ! A4    A(6,1,9)              119.4031         estimate D2E/DX2                !
 ! A5    A(7,1,9)              162.8989         estimate D2E/DX2                !
 ! A6    A(1,2,3)              119.8781         estimate D2E/DX2                !
 ! A7    A(1,2,10)             119.7756         estimate D2E/DX2                !
 ! A8    A(3,2,10)             120.3463         estimate D2E/DX2                !
 ! A9    A(7,2,10)             162.901          estimate D2E/DX2                !
 ! A10   A(2,3,4)              119.8953         estimate D2E/DX2                !
 ! A11   A(2,3,11)             120.4841         estimate D2E/DX2                !
 ! A12   A(4,3,11)             119.6206         estimate D2E/DX2                !
 ! A13   A(7,3,11)             162.9            estimate D2E/DX2                !
 ! A14   A(3,4,5)              120.0204         estimate D2E/DX2                !
 ! A15   A(3,4,12)             120.58           estimate D2E/DX2                !
 ! A16   A(5,4,12)             119.3996         estimate D2E/DX2                !
 ! A17   A(7,4,12)             162.9021         estimate D2E/DX2                !
 ! A18   A(4,5,6)              120.1167         estimate D2E/DX2                !
 ! A19   A(4,5,13)             120.1161         estimate D2E/DX2                !
 ! A20   A(6,5,7)               61.5212         estimate D2E/DX2                !
 ! A21   A(6,5,13)             119.7672         estimate D2E/DX2                !
 ! A22   A(7,5,13)             162.9139         estimate D2E/DX2                !
 ! A23   A(1,6,5)              120.1015         estimate D2E/DX2                !
 ! A24   A(1,6,14)             120.2564         estimate D2E/DX2                !
 ! A25   A(5,6,14)             119.6421         estimate D2E/DX2                !
 ! A26   A(1,7,3)              111.9782         estimate D2E/DX2                !
 ! A27   A(1,7,4)              145.8159         estimate D2E/DX2                !
 ! A28   A(1,7,5)              111.5485         estimate D2E/DX2                !
 ! A29   A(1,7,8)               72.9073         estimate D2E/DX2                !
 ! A30   A(2,7,4)              111.9428         estimate D2E/DX2                !
 ! A31   A(2,7,5)              145.8173         estimate D2E/DX2                !
 ! A32   A(2,7,8)               72.9029         estimate D2E/DX2                !
 ! A33   A(3,7,5)              111.7012         estimate D2E/DX2                !
 ! A34   A(3,7,8)               72.9043         estimate D2E/DX2                !
 ! A35   A(4,7,8)               72.9102         estimate D2E/DX2                !
 ! A36   A(5,7,8)               72.9147         estimate D2E/DX2                !
 ! D1    D(6,1,2,3)              0.0            estimate D2E/DX2                !
 ! D2    D(6,1,2,10)           180.0            estimate D2E/DX2                !
 ! D3    D(9,1,2,3)            180.0            estimate D2E/DX2                !
 ! D4    D(9,1,2,10)             0.0            estimate D2E/DX2                !
 ! D5    D(2,1,6,5)              0.0            estimate D2E/DX2                !
 ! D6    D(2,1,6,14)          -180.0            estimate D2E/DX2                !
 ! D7    D(7,1,6,5)             19.5389         estimate D2E/DX2                !
 ! D8    D(7,1,6,14)          -160.4611         estimate D2E/DX2                !
 ! D9    D(9,1,6,5)           -180.0            estimate D2E/DX2                !
 ! D10   D(9,1,6,14)             0.0            estimate D2E/DX2                !
 ! D11   D(6,1,7,3)           -143.2754         estimate D2E/DX2                !
 ! D12   D(6,1,7,4)            -79.8124         estimate D2E/DX2                !
 ! D13   D(6,1,7,5)            -17.2546         estimate D2E/DX2                !
 ! D14   D(6,1,7,8)            -80.3891         estimate D2E/DX2                !
 ! D15   D(9,1,7,3)            118.9648         estimate D2E/DX2                !
 ! D16   D(9,1,7,4)           -177.5723         estimate D2E/DX2                !
 ! D17   D(9,1,7,5)           -115.0145         estimate D2E/DX2                !
 ! D18   D(9,1,7,8)           -178.149          estimate D2E/DX2                !
 ! D19   D(1,2,3,4)              0.0            estimate D2E/DX2                !
 ! D20   D(1,2,3,11)          -180.0            estimate D2E/DX2                !
 ! D21   D(10,2,3,4)           180.0            estimate D2E/DX2                !
 ! D22   D(10,2,3,11)            0.0            estimate D2E/DX2                !
 ! D23   D(10,2,7,4)           117.9793         estimate D2E/DX2                !
 ! D24   D(10,2,7,5)          -178.8917         estimate D2E/DX2                !
 ! D25   D(10,2,7,8)          -179.1105         estimate D2E/DX2                !
 ! D26   D(2,3,4,5)              0.0            estimate D2E/DX2                !
 ! D27   D(2,3,4,12)           180.0            estimate D2E/DX2                !
 ! D28   D(11,3,4,5)          -180.0            estimate D2E/DX2                !
 ! D29   D(11,3,4,12)            0.0            estimate D2E/DX2                !
 ! D30   D(11,3,7,1)          -118.441          estimate D2E/DX2                !
 ! D31   D(11,3,7,5)           115.6216         estimate D2E/DX2                !
 ! D32   D(11,3,7,8)           178.6709         estimate D2E/DX2                !
 ! D33   D(3,4,5,6)              0.0            estimate D2E/DX2                !
 ! D34   D(3,4,5,13)           180.0            estimate D2E/DX2                !
 ! D35   D(12,4,5,6)          -180.0            estimate D2E/DX2                !
 ! D36   D(12,4,5,13)            0.0            estimate D2E/DX2                !
 ! D37   D(12,4,7,1)           177.6129         estimate D2E/DX2                !
 ! D38   D(12,4,7,2)          -118.9045         estimate D2E/DX2                !
 ! D39   D(12,4,7,8)           178.1896         estimate D2E/DX2                !
 ! D40   D(4,5,6,1)              0.0            estimate D2E/DX2                !
 ! D41   D(4,5,6,14)           180.0            estimate D2E/DX2                !
 ! D42   D(7,5,6,1)            -19.5264         estimate D2E/DX2                !
 ! D43   D(7,5,6,14)           160.4736         estimate D2E/DX2                !
 ! D44   D(13,5,6,1)          -180.0            estimate D2E/DX2                !
 ! D45   D(13,5,6,14)            0.0            estimate D2E/DX2                !
 ! D46   D(6,5,7,1)             17.2719         estimate D2E/DX2                !
 ! D47   D(6,5,7,2)             80.1831         estimate D2E/DX2                !
 ! D48   D(6,5,7,3)            143.4449         estimate D2E/DX2                !
 ! D49   D(6,5,7,8)             80.4019         estimate D2E/DX2                !
 ! D50   D(13,5,7,1)           116.3368         estimate D2E/DX2                !
 ! D51   D(13,5,7,2)           179.248          estimate D2E/DX2                !
 ! D52   D(13,5,7,3)          -117.4902         estimate D2E/DX2                !
 ! D53   D(13,5,7,8)           179.4668         estimate D2E/DX2                !
 --------------------------------------------------------------------------------
 Trust Radius=3.00D-01 FncErr=1.00D-07 GrdErr=1.00D-07 EigMax=2.50D+02 EigMin=1.00D-04
 Number of steps in this run=    100 maximum allowed number of steps=    100.
 GradGradGradGradGradGradGradGradGradGradGradGradGradGradGradGradGradGrad

                          Input orientation:                          
 ---------------------------------------------------------------------
 Center     Atomic      Atomic             Coordinates (Angstroms)
 Number     Number       Type             X           Y           Z
 ---------------------------------------------------------------------
      1          6           0        1.201681    0.392540   -0.065436
      2          6           0        0.326136    0.514556   -1.717151
      3          6           0       -1.546601    0.593178   -1.778259
      4          6           0       -2.534888    0.549468   -0.188467
      5          6           0       -1.655791    0.427712    1.455586
      6          6           0        0.208527    0.349388    1.517473
      7          1           0       -0.643130    1.045290   -0.102319
      8          1           0       -0.689359   -0.102731   -0.162621
      9          1           0        2.280992    0.346504   -0.016438
     10          1           0        0.904833    0.539304   -2.631948
     11          1           0       -2.062575    0.663800   -2.727199
     12          1           0       -3.614572    0.594118   -0.210791
     13          1           0       -2.224129    0.402397    2.373244
     14          1           0        0.708782    0.279106    2.472000
 ---------------------------------------------------------------------
                    Distance matrix (angstroms):
                    1          2          3          4          5
     1  C    0.000000
     2  C    1.873400   0.000000
     3  C    3.244545   1.875382   0.000000
     4  C    3.741886   3.244002   1.872448   0.000000
     5  C    3.237266   3.741903   3.239916   1.868300   0.000000
     6  C    1.869176   3.240973   3.741892   3.236756   1.866989
     7  H    1.957235   1.956742   1.956895   1.957552   1.958048
     8  H    1.957235   1.956741   1.956895   1.957552   1.958049
     9  H    1.081403   2.596561   4.220821   4.823224   4.203773
    10  H    2.587787   1.082754   2.596385   4.219287   4.824643
    11  H    4.220655   2.597770   1.082453   2.584823   4.209145
    12  H    4.822661   4.219553   2.594891   1.080837   2.577077
    13  H    4.205167   4.821593   4.210750   2.584679   1.079697
    14  H    2.587354   4.213175   4.821835   4.203876   2.578059
                    6          7          8          9         10
     6  C    0.000000
     7  H    1.957888   0.000000
     8  H    1.957888   1.150533   0.000000
     9  H    2.578372   3.007685   3.007685   0.000000
    10  H    4.211722   3.008527   3.008527   2.961736   0.000000
    11  H    4.824313   3.008381   3.008380   5.129861   2.971545
    12  H    4.202722   3.007456   3.007456   5.903961   5.127380
    13  H    2.579335   3.006872   3.006873   5.099982   5.904328
    14  H    1.079961   3.006962   3.006963   2.944267   5.114335
                   11         12         13         14
    11  H    0.000000
    12  H    2.957340   0.000000
    13  H    5.109692   2.940634   0.000000
    14  H    5.904242   5.097842   2.937162   0.000000
 Stoichiometry    C6H8
 Framework group  CS[SG(C6H6),X(H2)]
 Deg. of freedom    24
 Full point group                 CS      NOp   2
 Largest Abelian subgroup         CS      NOp   2
 Largest concise Abelian subgroup CS      NOp   2
                         Standard orientation:                         
 ---------------------------------------------------------------------
 Center     Atomic      Atomic             Coordinates (Angstroms)
 Number     Number       Type             X           Y           Z
 ---------------------------------------------------------------------
      1          6           0        0.011264   -1.871295   -0.000000
      2          6           0       -1.617585   -0.945833    0.000000
      3          6           0       -1.626558    0.929528    0.000000
      4          6           0       -0.007745    1.870543    0.000000
      5          6           0        1.613335    0.941756   -0.000000
      6          6           0        1.623322   -0.925206   -0.000000
      7          1           0       -0.003774   -0.000570   -0.575266
      8          1           0       -0.003774   -0.000570    0.575266
      9          1           0        0.030228   -2.952532   -0.000000
     10          1           0       -2.549360   -1.497332    0.000000
     11          1           0       -2.561999    1.474186    0.000000
     12          1           0       -0.000000    2.951352    0.000000
     13          1           0        2.547685    1.482807   -0.000000
     14          1           0        2.564794   -1.454306   -0.000000
 ---------------------------------------------------------------------
 Rotational constants (GHZ):           3.3029123           3.3019400           1.6584419
 Standard basis: 6-31G(d) (6D, 7F)
 There are    80 symmetry adapted cartesian basis functions of A'  symmetry.
 There are    26 symmetry adapted cartesian basis functions of A"  symmetry.
 There are    80 symmetry adapted basis functions of A'  symmetry.
 There are    26 symmetry adapted basis functions of A"  symmetry.
   106 basis functions,   200 primitive gaussians,   106 cartesian basis functions
    22 alpha electrons       22 beta electrons
       nuclear repulsion energy       180.9851414335 Hartrees.
 NAtoms=   14 NActive=   14 NUniq=   13 SFac= 1.16D+00 NAtFMM=   60 NAOKFM=F Big=F
 Integral buffers will be    131072 words long.
 Raffenetti 1 integral format.
 Two-electron integral symmetry is turned on.
 One-electron integrals computed using PRISM.
 NBasis=   106 RedAO= T EigKep=  7.77D-03  NBF=    80    26
 NBsUse=   106 1.00D-06 EigRej= -1.00D+00 NBFU=    80    26
 ExpMin= 1.61D-01 ExpMax= 3.05D+03 ExpMxC= 4.57D+02 IAcc=3 IRadAn=         5 AccDes= 0.00D+00
 Harris functional with IExCor=  205 and IRadAn=       5 diagonalized for initial guess.
 HarFok:  IExCor=  205 AccDes= 0.00D+00 IRadAn=         5 IDoV= 1 UseB2=F ITyADJ=14
 ICtDFT=  3500011 ScaDFX=  1.000000  1.000000  1.000000  1.000000
 FoFCou: FMM=F IPFlag=           0 FMFlag=      100000 FMFlg1=           0
         NFxFlg=           0 DoJE=T BraDBF=F KetDBF=T FulRan=T
         wScrn=  0.000000 ICntrl=       500 IOpCl=  0 I1Cent=   200000004 NGrid=           0
         NMat0=    1 NMatS0=      1 NMatT0=    0 NMatD0=    1 NMtDS0=    0 NMtDT0=    0
 Petite list used in FoFCou.
 Initial guess orbital symmetries:
       Occupied  (A') (A') (A') (A') (A') (A') (A') (A') (A') (A')
                 (A') (A') (A') (A') (A') (A') (A') (A') (A") (A")
                 (A") (A')
       Virtual   (A") (A") (A") (A') (A') (A') (A") (A') (A') (A')
                 (A') (A') (A') (A') (A') (A') (A') (A') (A') (A')
                 (A') (A") (A") (A") (A") (A") (A') (A") (A') (A')
                 (A') (A') (A') (A') (A') (A') (A') (A') (A') (A")
                 (A') (A') (A') (A') (A') (A') (A') (A') (A") (A')
                 (A") (A") (A") (A") (A') (A') (A') (A') (A') (A")
                 (A") (A") (A") (A") (A") (A") (A') (A') (A') (A')
                 (A') (A') (A') (A') (A') (A') (A') (A') (A') (A')
                 (A') (A') (A') (A')
 The electronic state of the initial guess is 1-A'.
 Keep R1 ints in memory in symmetry-blocked form, NReq=24710605.
 Requested convergence on RMS density matrix=1.00D-08 within 128 cycles.
 Requested convergence on MAX density matrix=1.00D-06.
 Requested convergence on             energy=1.00D-06.
 No special actions if energy rises.
 SCF Done:  E(RHF) =  -230.858093208     A.U. after   12 cycles
            NFock= 12  Conv=0.82D-08     -V/T= 2.0128

 **********************************************************************

            Population analysis using the SCF density.

 **********************************************************************

 Orbital symmetries:
       Occupied  (A') (A') (A') (A') (A') (A') (A') (A') (A') (A')
                 (A') (A') (A') (A') (A') (A') (A') (A') (A") (A")
                 (A") (A')
       Virtual   (A") (A") (A') (A') (A") (A') (A") (A') (A') (A')
                 (A') (A') (A') (A') (A') (A') (A') (A') (A') (A')
                 (A') (A") (A") (A") (A') (A") (A") (A") (A') (A')
                 (A') (A') (A') (A') (A') (A') (A') (A') (A') (A')
                 (A') (A') (A") (A') (A') (A') (A') (A") (A') (A')
                 (A") (A") (A") (A") (A') (A') (A') (A') (A') (A")
                 (A") (A") (A") (A") (A") (A") (A') (A') (A') (A')
                 (A') (A') (A') (A') (A') (A') (A') (A') (A') (A')
                 (A') (A') (A') (A')
 The electronic state is 1-A'.
 Alpha  occ. eigenvalues --  -11.35139 -11.35109 -11.35019 -11.34984 -11.34913
 Alpha  occ. eigenvalues --  -11.34883  -0.98219  -0.91214  -0.91203  -0.80688
 Alpha  occ. eigenvalues --   -0.80677  -0.74675  -0.67969  -0.55150  -0.55150
 Alpha  occ. eigenvalues --   -0.46256  -0.46244  -0.45342  -0.38935  -0.27294
 Alpha  occ. eigenvalues --   -0.27293  -0.25227
 Alpha virt. eigenvalues --    0.04848   0.04860   0.16065   0.16368   0.16450
 Alpha virt. eigenvalues --    0.16581   0.23184   0.26878   0.26880   0.28526
 Alpha virt. eigenvalues --    0.28531   0.30373   0.34555   0.34559   0.38993
 Alpha virt. eigenvalues --    0.41445   0.71974   0.74282   0.74283   0.76111
 Alpha virt. eigenvalues --    0.76138   0.80914   0.80920   0.81519   0.85238
 Alpha virt. eigenvalues --    0.85821   0.85822   0.93204   1.01429   1.01442
 Alpha virt. eigenvalues --    1.02400   1.07712   1.08939   1.12489   1.12550
 Alpha virt. eigenvalues --    1.13668   1.13705   1.16907   1.16973   1.18726
 Alpha virt. eigenvalues --    1.19394   1.19397   1.22472   1.39159   1.39169
 Alpha virt. eigenvalues --    1.40713   1.58336   1.71013   1.72777   1.73920
 Alpha virt. eigenvalues --    1.81699   1.81712   1.84818   1.84822   1.86317
 Alpha virt. eigenvalues --    1.86352   1.87738   1.89314   1.89328   1.99216
 Alpha virt. eigenvalues --    2.14109   2.14148   2.15543   2.20999   2.21036
 Alpha virt. eigenvalues --    2.28449   2.37032   2.39256   2.39261   2.51098
 Alpha virt. eigenvalues --    2.51104   2.61698   2.63909   2.63942   2.67263
 Alpha virt. eigenvalues --    2.67283   2.75242   2.86023   4.33448   4.33451
 Alpha virt. eigenvalues --    4.37548   4.53684   4.53704   4.67221
     Molecular Orbital Coefficients:
                           1         2         3         4         5
                           O         O         O         O         O
     Eigenvalues --   -11.35139 -11.35109 -11.35019 -11.34984 -11.34913
   1 1   C  1S          0.08896  -0.05913   0.98441  -0.00693  -0.10051
   2        2S          0.00222  -0.00127   0.02396  -0.00020  -0.00237
   3        2PX        -0.00008   0.00010   0.00003  -0.00001   0.00008
   4        2PY         0.00017   0.00007   0.00017   0.00008   0.00013
   5        2PZ         0.00000   0.00000   0.00000   0.00000   0.00000
   6        3S          0.00083  -0.00095  -0.00940   0.00050   0.00254
   7        3PX        -0.00076   0.00033   0.00018   0.00002   0.00075
   8        3PY        -0.00001  -0.00131  -0.00163  -0.00002   0.00024
   9        3PZ         0.00000   0.00000   0.00000   0.00000   0.00000
  10        4XX        -0.00024   0.00023  -0.00159   0.00010   0.00006
  11        4YY        -0.00017   0.00014  -0.00095   0.00004   0.00001
  12        4ZZ        -0.00018   0.00022  -0.00129   0.00004   0.00008
  13        4XY         0.00003   0.00003  -0.00002  -0.00001  -0.00003
  14        4XZ         0.00000   0.00000   0.00000   0.00000   0.00000
  15        4YZ         0.00000   0.00000   0.00000   0.00000   0.00000
  16 2   C  1S          0.89458  -0.42529  -0.10580   0.00938   0.00614
  17        2S          0.02175  -0.01034  -0.00257   0.00040   0.00027
  18        2PX         0.00017  -0.00004   0.00014   0.00014   0.00008
  19        2PY         0.00014   0.00010  -0.00004   0.00001   0.00012
  20        2PZ         0.00000   0.00000   0.00000   0.00000   0.00000
  21        3S         -0.00742   0.00581   0.00310  -0.00092  -0.00062
  22        3PX        -0.00113   0.00063   0.00105  -0.00110  -0.00092
  23        3PY        -0.00033   0.00130  -0.00033  -0.00068  -0.00048
  24        3PZ         0.00000   0.00000   0.00000   0.00000   0.00000
  25        4XX        -0.00107   0.00039  -0.00001   0.00008   0.00003
  26        4YY        -0.00136   0.00049   0.00004   0.00004   0.00012
  27        4ZZ        -0.00123   0.00047   0.00003   0.00011   0.00010
  28        4XY         0.00030  -0.00014  -0.00001  -0.00004  -0.00001
  29        4XZ         0.00000   0.00000   0.00000   0.00000   0.00000
  30        4YZ         0.00000   0.00000   0.00000   0.00000   0.00000
  31 3   C  1S          0.42785   0.89478   0.01475  -0.09218   0.00500
  32        2S          0.01040   0.02176   0.00053  -0.00224   0.00015
  33        2PX         0.00011   0.00013   0.00014   0.00015   0.00007
  34        2PY        -0.00018  -0.00001  -0.00001   0.00004  -0.00009
  35        2PZ         0.00000   0.00000   0.00000   0.00000   0.00000
  36        3S         -0.00212  -0.00923  -0.00098   0.00296  -0.00008
  37        3PX        -0.00048  -0.00122  -0.00109   0.00102  -0.00044
  38        3PY        -0.00056   0.00119   0.00069   0.00036   0.00021
  39        3PZ         0.00000   0.00000   0.00000   0.00000   0.00000
  40        4XX        -0.00058  -0.00097   0.00007  -0.00003   0.00005
  41        4YY        -0.00075  -0.00125   0.00003   0.00002   0.00011
  42        4ZZ        -0.00066  -0.00114   0.00010   0.00002   0.00006
  43        4XY        -0.00014  -0.00030   0.00004   0.00001   0.00002
  44        4XZ         0.00000   0.00000   0.00000   0.00000   0.00000
  45        4YZ         0.00000   0.00000   0.00000   0.00000   0.00000
  46 4   C  1S          0.03202   0.08684   0.00607   0.98289  -0.07739
  47        2S          0.00093   0.00202   0.00011   0.02393  -0.00173
  48        2PX        -0.00000  -0.00013  -0.00001   0.00003   0.00000
  49        2PY        -0.00017  -0.00005  -0.00008  -0.00017  -0.00014
  50        2PZ         0.00000   0.00000   0.00000   0.00000   0.00000
  51        3S          0.00005   0.00140   0.00040  -0.00932   0.00110
  52        3PX        -0.00039  -0.00073   0.00001   0.00017   0.00042
  53        3PY         0.00083  -0.00104  -0.00001   0.00160   0.00061
  54        3PZ         0.00000   0.00000   0.00000   0.00000   0.00000
  55        4XX        -0.00004  -0.00031   0.00007  -0.00159   0.00011
  56        4YY        -0.00005  -0.00021   0.00003  -0.00095   0.00005
  57        4ZZ         0.00000  -0.00027   0.00001  -0.00130   0.00014
  58        4XY        -0.00004   0.00001   0.00001   0.00001   0.00005
  59        4XZ         0.00000   0.00000   0.00000   0.00000   0.00000
  60        4YZ         0.00000   0.00000   0.00000   0.00000   0.00000
  61 5   C  1S          0.00111   0.00413   0.00962   0.13201   0.45566
  62        2S          0.00009   0.00026   0.00041   0.00318   0.01107
  63        2PX        -0.00011  -0.00005  -0.00014  -0.00016  -0.00007
  64        2PY        -0.00008  -0.00008  -0.00003   0.00004  -0.00018
  65        2PZ         0.00000   0.00000   0.00000   0.00000   0.00000
  66        3S          0.00008  -0.00061  -0.00057   0.00100  -0.00254
  67        3PX         0.00050   0.00078   0.00105  -0.00095   0.00044
  68        3PY         0.00033   0.00059   0.00046   0.00038  -0.00067
  69        3PZ         0.00000   0.00000   0.00000   0.00000   0.00000
  70        4XX         0.00005  -0.00003   0.00005  -0.00029  -0.00061
  71        4YY         0.00011   0.00003  -0.00001  -0.00033  -0.00079
  72        4ZZ         0.00007   0.00006   0.00008  -0.00030  -0.00071
  73        4XY        -0.00002   0.00002  -0.00003   0.00007   0.00016
  74        4XZ         0.00000   0.00000   0.00000   0.00000   0.00000
  75        4YZ         0.00000   0.00000   0.00000   0.00000   0.00000
  76 6   C  1S          0.00386  -0.00336   0.10888   0.01777   0.87666
  77        2S          0.00024  -0.00017   0.00262   0.00061   0.02134
  78        2PX        -0.00012  -0.00003  -0.00016  -0.00014  -0.00011
  79        2PY         0.00011  -0.00001  -0.00005   0.00003   0.00015
  80        2PZ         0.00000   0.00000   0.00000   0.00000   0.00000
  81        3S         -0.00030   0.00052   0.00121  -0.00061  -0.00755
  82        3PX         0.00087  -0.00029  -0.00098   0.00107   0.00116
  83        3PY        -0.00062   0.00026  -0.00038  -0.00042  -0.00013
  84        3PZ         0.00000   0.00000   0.00000   0.00000   0.00000
  85        4XX         0.00002   0.00006  -0.00026   0.00004  -0.00103
  86        4YY         0.00010   0.00004  -0.00030  -0.00002  -0.00134
  87        4ZZ         0.00009  -0.00000  -0.00027   0.00006  -0.00121
  88        4XY         0.00000   0.00003  -0.00006   0.00003  -0.00029
  89        4XZ         0.00000   0.00000   0.00000   0.00000   0.00000
  90        4YZ         0.00000   0.00000   0.00000   0.00000   0.00000
  91 7   H  1S         -0.00007  -0.00002  -0.00005  -0.00005  -0.00006
  92        2S          0.00155   0.00053   0.00108   0.00111   0.00124
  93 8   H  1S         -0.00007  -0.00002  -0.00005  -0.00005  -0.00006
  94        2S          0.00155   0.00053   0.00108   0.00111   0.00124
  95 9   H  1S         -0.00014  -0.00003  -0.00033  -0.00002  -0.00008
  96        2S         -0.00009  -0.00056   0.00123  -0.00014  -0.00034
  97 10  H  1S         -0.00034   0.00006  -0.00006  -0.00008  -0.00007
  98        2S          0.00111  -0.00056  -0.00018  -0.00051  -0.00045
  99 11  H  1S         -0.00022  -0.00026  -0.00008  -0.00007  -0.00004
 100        2S          0.00051   0.00114  -0.00050  -0.00017  -0.00027
 101 12  H  1S         -0.00012  -0.00006  -0.00002  -0.00033  -0.00009
 102        2S         -0.00042   0.00036  -0.00010   0.00123  -0.00053
 103 13  H  1S         -0.00006  -0.00008  -0.00010  -0.00012  -0.00021
 104        2S         -0.00036  -0.00038  -0.00048   0.00024   0.00064
 105 14  H  1S         -0.00010   0.00002  -0.00011  -0.00010  -0.00031
 106        2S         -0.00052   0.00007   0.00021  -0.00047   0.00116
                           6         7         8         9        10
                           O         O         O         O         O
     Eigenvalues --   -11.34883  -0.98219  -0.91214  -0.91203  -0.80688
   1 1   C  1S          0.04280  -0.08175  -0.11641  -0.00722   0.00428
   2        2S          0.00121   0.15776   0.23148   0.01433  -0.00889
   3        2PX        -0.00010   0.00093   0.00450  -0.06052  -0.08211
   4        2PY         0.00006   0.00523  -0.03827  -0.00247   0.00464
   5        2PZ         0.00000   0.00000   0.00000   0.00000   0.00000
   6        3S         -0.00206   0.15115   0.22785   0.01409  -0.00869
   7        3PX        -0.00033   0.00015   0.00144  -0.02290  -0.03291
   8        3PY        -0.00145   0.01299  -0.00169  -0.00001   0.00187
   9        3PZ         0.00000   0.00000   0.00000   0.00000   0.00000
  10        4XX         0.00005   0.00581   0.00486   0.00038   0.00040
  11        4YY         0.00004   0.00809   0.01200   0.00063  -0.00090
  12        4ZZ         0.00009  -0.00730  -0.01021  -0.00062   0.00041
  13        4XY        -0.00003  -0.00003   0.00019  -0.00757  -0.00795
  14        4XZ         0.00000   0.00000   0.00000   0.00000   0.00000
  15        4YZ         0.00000   0.00000   0.00000   0.00000   0.00000
  16 2   C  1S         -0.00256  -0.08078  -0.05272  -0.10452  -0.09275
  17        2S         -0.00020   0.15588   0.10485   0.20785   0.19097
  18        2PX         0.00001   0.00486   0.01224  -0.04291  -0.06808
  19        2PY        -0.00002   0.00235  -0.05515   0.00596  -0.08448
  20        2PZ         0.00000   0.00000   0.00000   0.00000   0.00000
  21        3S          0.00087   0.14958   0.10335   0.20491   0.19405
  22        3PX         0.00062   0.01129   0.00959  -0.00628  -0.01954
  23        3PY         0.00035   0.00649  -0.01792   0.00816  -0.02933
  24        3PZ         0.00000   0.00000   0.00000   0.00000   0.00000
  25        4XX         0.00003   0.00741   0.00965   0.00649   0.01285
  26        4YY         0.00002   0.00629  -0.00202   0.00859  -0.00293
  27        4ZZ        -0.00004  -0.00721  -0.00463  -0.00917  -0.00864
  28        4XY        -0.00002   0.00117  -0.00163   0.00495   0.00885
  29        4XZ         0.00000   0.00000   0.00000   0.00000   0.00000
  30        4YZ         0.00000   0.00000   0.00000   0.00000   0.00000
  31 3   C  1S          0.00648  -0.08094   0.06329  -0.09841   0.08856
  32        2S          0.00034   0.15619  -0.12586   0.19570  -0.18235
  33        2PX         0.00003   0.00496  -0.00716  -0.04382   0.06216
  34        2PY        -0.00008  -0.00209  -0.05447  -0.01205  -0.08671
  35        2PZ         0.00000   0.00000   0.00000   0.00000   0.00000
  36        3S         -0.00111   0.14984  -0.12403   0.19287  -0.18522
  37        3PX        -0.00105   0.01138  -0.00867  -0.00715   0.01750
  38        3PY         0.00054  -0.00632  -0.01713  -0.01007  -0.03049
  39        3PZ         0.00000   0.00000   0.00000   0.00000   0.00000
  40        4XX        -0.00000   0.00744  -0.01024   0.00550  -0.01292
  41        4YY         0.00005   0.00629   0.00107   0.00870   0.00343
  42        4ZZ         0.00009  -0.00722   0.00556  -0.00863   0.00826
  43        4XY        -0.00001  -0.00115  -0.00122  -0.00515   0.00796
  44        4XZ         0.00000   0.00000   0.00000   0.00000   0.00000
  45        4YZ         0.00000   0.00000   0.00000   0.00000   0.00000
  46 4   C  1S         -0.10862  -0.08206   0.11639   0.00517   0.00387
  47        2S         -0.00274   0.15836  -0.23145  -0.01031  -0.00789
  48        2PX         0.00013   0.00097   0.00237  -0.06081   0.08213
  49        2PY        -0.00002  -0.00514  -0.03842  -0.00223  -0.00348
  50        2PZ         0.00000   0.00000   0.00000   0.00000   0.00000
  51        3S          0.00329   0.15164  -0.22768  -0.01016  -0.00836
  52        3PX         0.00071   0.00028   0.00102  -0.02299   0.03291
  53        3PY        -0.00135  -0.01297  -0.00175  -0.00040  -0.00056
  54        3PZ         0.00000   0.00000   0.00000   0.00000   0.00000
  55        4XX         0.00001   0.00584  -0.00487  -0.00027   0.00023
  56        4YY        -0.00001   0.00812  -0.01201  -0.00052  -0.00061
  57        4ZZ        -0.00001  -0.00732   0.01021   0.00046   0.00035
  58        4XY        -0.00001  -0.00000  -0.00053   0.00756  -0.00798
  59        4XZ         0.00000   0.00000   0.00000   0.00000   0.00000
  60        4YZ         0.00000   0.00000   0.00000   0.00000   0.00000
  61 5   C  1S          0.87595  -0.08295   0.05296   0.10329  -0.09136
  62        2S          0.02135   0.16009  -0.10533  -0.20543   0.18792
  63        2PX        -0.00009  -0.00417   0.01230  -0.04397   0.06745
  64        2PY        -0.00001  -0.00280  -0.05595   0.00686   0.08344
  65        2PZ         0.00000   0.00000   0.00000   0.00000   0.00000
  66        3S         -0.00965   0.15310  -0.10346  -0.20182   0.19114
  67        3PX         0.00146  -0.01114   0.00968  -0.00688   0.01866
  68        3PY         0.00120  -0.00659  -0.01825   0.00821   0.02857
  69        3PZ         0.00000   0.00000   0.00000   0.00000   0.00000
  70        4XX        -0.00092   0.00763  -0.00977  -0.00650   0.01290
  71        4YY        -0.00119   0.00652   0.00208  -0.00853  -0.00303
  72        4ZZ        -0.00109  -0.00740   0.00464   0.00906  -0.00853
  73        4XY         0.00028   0.00113   0.00173  -0.00485   0.00859
  74        4XZ         0.00000   0.00000   0.00000   0.00000   0.00000
  75        4YZ         0.00000   0.00000   0.00000   0.00000   0.00000
  76 6   C  1S         -0.46013  -0.08280  -0.06387   0.09701   0.08738
  77        2S         -0.01124   0.15980   0.12702  -0.19292  -0.17973
  78        2PX         0.00004  -0.00412  -0.00692  -0.04491  -0.06178
  79        2PY         0.00009   0.00295  -0.05480  -0.01338   0.08511
  80        2PZ         0.00000   0.00000   0.00000   0.00000   0.00000
  81        3S          0.00648   0.15286   0.12479  -0.18960  -0.18287
  82        3PX        -0.00098  -0.01119  -0.00874  -0.00777  -0.01668
  83        3PY         0.00136   0.00653  -0.01729  -0.01021   0.02954
  84        3PZ         0.00000   0.00000   0.00000   0.00000   0.00000
  85        4XX         0.00040   0.00763   0.01041  -0.00553  -0.01303
  86        4YY         0.00053   0.00648  -0.00114  -0.00858   0.00360
  87        4ZZ         0.00049  -0.00739  -0.00560   0.00851   0.00816
  88        4XY         0.00014  -0.00112   0.00134   0.00503   0.00763
  89        4XZ         0.00000   0.00000   0.00000   0.00000   0.00000
  90        4YZ         0.00000   0.00000   0.00000   0.00000   0.00000
  91 7   H  1S         -0.00002   0.05692   0.00008   0.00088   0.00001
  92        2S          0.00037   0.01487   0.00003   0.00029   0.00000
  93 8   H  1S         -0.00002   0.05692   0.00008   0.00088   0.00001
  94        2S          0.00037   0.01487   0.00003   0.00029   0.00000
  95 9   H  1S         -0.00005   0.05672   0.10645   0.00626  -0.00658
  96        2S         -0.00038   0.02061   0.03926   0.00246  -0.00271
  97 10  H  1S          0.00003   0.05588   0.04821   0.09527   0.12957
  98        2S          0.00018   0.02039   0.01775   0.03524   0.05900
  99 11  H  1S         -0.00007   0.05602  -0.05794   0.08969  -0.12389
 100        2S         -0.00040   0.02042  -0.02131   0.03319  -0.05637
 101 12  H  1S         -0.00000   0.05700  -0.10653  -0.00508  -0.00483
 102        2S          0.00010   0.02068  -0.03928  -0.00173  -0.00249
 103 13  H  1S         -0.00024   0.05776  -0.04851  -0.09487   0.12796
 104        2S          0.00109   0.02089  -0.01789  -0.03489   0.05854
 105 14  H  1S          0.00008   0.05762   0.05842  -0.08910  -0.12225
 106        2S         -0.00052   0.02085   0.02157  -0.03276  -0.05596
                          11        12        13        14        15
                           O         O         O         O         O
     Eigenvalues --    -0.80677  -0.74675  -0.67969  -0.55150  -0.55150
   1 1   C  1S         -0.10401  -0.06641  -0.00820  -0.02735   0.00301
   2        2S          0.21406   0.14269   0.02717   0.04154  -0.00453
   3        2PX        -0.00093   0.00111   0.00167  -0.01321  -0.08400
   4        2PY        -0.11400  -0.11679  -0.16360   0.27322  -0.03300
   5        2PZ         0.00000   0.00000   0.00000   0.00000   0.00000
   6        3S          0.21766   0.13287   0.01234   0.11140  -0.01241
   7        3PX        -0.00057   0.00059   0.00098  -0.00814  -0.05279
   8        3PY        -0.03517  -0.06171  -0.07703   0.13791  -0.01639
   9        3PZ         0.00000   0.00000   0.00000   0.00000   0.00000
  10        4XX        -0.00623  -0.01022  -0.00455   0.01740  -0.00196
  11        4YY         0.01741   0.01591   0.00742  -0.01933   0.00216
  12        4ZZ        -0.00970  -0.00581  -0.00146   0.00047  -0.00006
  13        4XY        -0.00074  -0.00050  -0.00032  -0.00056  -0.00995
  14        4XZ         0.00000   0.00000   0.00000   0.00000   0.00000
  15        4YZ         0.00000   0.00000   0.00000   0.00000   0.00000
  16 2   C  1S          0.04871   0.06576  -0.00848  -0.01626  -0.02199
  17        2S         -0.10025  -0.14142   0.02776   0.02455   0.03324
  18        2PX         0.08204   0.09975  -0.14098   0.17635   0.16464
  19        2PY        -0.03521   0.05852  -0.08282   0.02434   0.15612
  20        2PZ         0.00000   0.00000   0.00000   0.00000   0.00000
  21        3S         -0.10205  -0.13138   0.01327   0.06640   0.08971
  22        3PX         0.02868   0.05297  -0.06637   0.09314   0.08005
  23        3PY        -0.01669   0.03110  -0.03909   0.00509   0.08434
  24        3PZ         0.00000   0.00000   0.00000   0.00000   0.00000
  25        4XX         0.00007  -0.00904   0.00430   0.00010  -0.01247
  26        4YY        -0.00526   0.00344  -0.00141  -0.00127   0.01087
  27        4ZZ         0.00453   0.00574  -0.00148   0.00028   0.00037
  28        4XY        -0.00903  -0.01310   0.00608  -0.01507  -0.01208
  29        4XZ         0.00000   0.00000   0.00000   0.00000   0.00000
  30        4YZ         0.00000   0.00000   0.00000   0.00000   0.00000
  31 3   C  1S          0.05578  -0.06583  -0.00842   0.01079  -0.02517
  32        2S         -0.11480   0.14155   0.02765  -0.01628   0.03807
  33        2PX         0.08669  -0.10038  -0.14174  -0.13402   0.20183
  34        2PY         0.02927   0.05775   0.08156  -0.01300  -0.15582
  35        2PZ         0.00000   0.00000   0.00000   0.00000   0.00000
  36        3S         -0.11690   0.13153   0.01310  -0.04411   0.10264
  37        3PX         0.02982  -0.05326  -0.06670  -0.07220   0.09985
  38        3PY         0.01468   0.03066   0.03853  -0.01491  -0.08247
  39        3PZ         0.00000   0.00000   0.00000   0.00000   0.00000
  40        4XX        -0.00106   0.00922   0.00436  -0.00276  -0.01232
  41        4YY        -0.00488  -0.00362  -0.00148   0.00353   0.01050
  42        4ZZ         0.00519  -0.00575  -0.00147  -0.00019   0.00043
  43        4XY         0.00974  -0.01301  -0.00604  -0.01201   0.01498
  44        4XZ         0.00000   0.00000   0.00000   0.00000   0.00000
  45        4YZ         0.00000   0.00000   0.00000   0.00000   0.00000
  46 4   C  1S         -0.10384   0.06654  -0.00810   0.02737  -0.00332
  47        2S          0.21370  -0.14295   0.02698  -0.04164   0.00509
  48        2PX         0.00434   0.00009  -0.00001  -0.00915  -0.08443
  49        2PY         0.11402  -0.11710   0.16368   0.27339  -0.03112
  50        2PZ         0.00000   0.00000   0.00000   0.00000   0.00000
  51        3S          0.21725  -0.13314   0.01202  -0.11148   0.01338
  52        3PX         0.00165   0.00004   0.00019  -0.00557  -0.05308
  53        3PY         0.03512  -0.06178   0.07704   0.13786  -0.01607
  54        3PZ         0.00000   0.00000   0.00000   0.00000   0.00000
  55        4XX        -0.00624   0.01025  -0.00457  -0.01742   0.00189
  56        4YY         0.01741  -0.01597   0.00743   0.01933  -0.00214
  57        4ZZ        -0.00969   0.00583  -0.00146  -0.00048   0.00005
  58        4XY        -0.00017  -0.00019   0.00017   0.00129   0.00986
  59        4XZ         0.00000   0.00000   0.00000   0.00000   0.00000
  60        4YZ         0.00000   0.00000   0.00000   0.00000   0.00000
  61 5   C  1S          0.04821  -0.06713  -0.00794   0.01655   0.02220
  62        2S         -0.09920   0.14410   0.02663  -0.02530  -0.03390
  63        2PX        -0.08289   0.10209   0.14175   0.17592   0.16538
  64        2PY         0.03668   0.05951   0.08250   0.02332   0.15483
  65        2PZ         0.00000   0.00000   0.00000   0.00000   0.00000
  66        3S         -0.10077   0.13441   0.01143  -0.06725  -0.09022
  67        3PX        -0.02891   0.05360   0.06668   0.09301   0.08012
  68        3PY         0.01711   0.03125   0.03873   0.00441   0.08338
  69        3PZ         0.00000   0.00000   0.00000   0.00000   0.00000
  70        4XX        -0.00002   0.00948   0.00444  -0.00001   0.01260
  71        4YY        -0.00520  -0.00368  -0.00158   0.00114  -0.01109
  72        4ZZ         0.00451  -0.00589  -0.00146  -0.00029  -0.00040
  73        4XY        -0.00900   0.01324   0.00602   0.01497   0.01196
  74        4XZ         0.00000   0.00000   0.00000   0.00000   0.00000
  75        4YZ         0.00000   0.00000   0.00000   0.00000   0.00000
  76 6   C  1S          0.05526   0.06706  -0.00798  -0.01107   0.02535
  77        2S         -0.11373  -0.14398   0.02671   0.01692  -0.03869
  78        2PX        -0.08776  -0.10264   0.14262  -0.13328   0.20306
  79        2PY        -0.03101   0.05824  -0.08089  -0.01425  -0.15373
  80        2PZ         0.00000   0.00000   0.00000   0.00000   0.00000
  81        3S         -0.11549  -0.13428   0.01157   0.04493  -0.10307
  82        3PX        -0.03029  -0.05394   0.06713  -0.07214   0.10025
  83        3PY        -0.01510   0.03061  -0.03795  -0.01557  -0.08098
  84        3PZ         0.00000   0.00000   0.00000   0.00000   0.00000
  85        4XX        -0.00124  -0.00975   0.00459   0.00265   0.01259
  86        4YY        -0.00475   0.00396  -0.00173  -0.00342  -0.01085
  87        4ZZ         0.00516   0.00588  -0.00146   0.00019  -0.00045
  88        4XY         0.00970   0.01303  -0.00591   0.01189  -0.01475
  89        4XZ         0.00000   0.00000   0.00000   0.00000   0.00000
  90        4YZ         0.00000   0.00000   0.00000   0.00000   0.00000
  91 7   H  1S         -0.00006   0.00000  -0.12978   0.00017   0.00061
  92        2S         -0.00003   0.00000  -0.09768   0.00011   0.00042
  93 8   H  1S         -0.00006   0.00000  -0.12978   0.00017   0.00061
  94        2S         -0.00003   0.00000  -0.09768   0.00011   0.00042
  95 9   H  1S          0.14548   0.12269   0.09986  -0.15160   0.01792
  96        2S          0.06642   0.05525   0.05397  -0.12227   0.01475
  97 10  H  1S         -0.06775  -0.12141   0.09999  -0.09131  -0.12272
  98        2S         -0.03100  -0.05463   0.05403  -0.07375  -0.09888
  99 11  H  1S         -0.07756   0.12158   0.09997   0.06094  -0.14024
 100        2S         -0.03553   0.05470   0.05402   0.04934  -0.11301
 101 12  H  1S          0.14543  -0.12301   0.09985   0.15159  -0.01716
 102        2S          0.06639  -0.05540   0.05397   0.12234  -0.01356
 103 13  H  1S         -0.06774   0.12417   0.09994   0.09069   0.12235
 104        2S         -0.03089   0.05597   0.05404   0.07314   0.09880
 105 14  H  1S         -0.07771  -0.12402   0.09994  -0.06029   0.13991
 106        2S         -0.03539  -0.05589   0.05404  -0.04852   0.11297
                          16        17        18        19        20
                           O         O         O         O         O
     Eigenvalues --    -0.46256  -0.46244  -0.45342  -0.38935  -0.27294
   1 1   C  1S          0.02732  -0.00087   0.00017   0.00000   0.00000
   2        2S         -0.04646   0.00135  -0.00046   0.00000   0.00000
   3        2PX         0.01793   0.24228   0.23396   0.00000   0.00000
   4        2PY        -0.20177   0.01309   0.00604   0.00000   0.00000
   5        2PZ         0.00000   0.00000   0.00000   0.19010   0.29430
   6        3S         -0.10809   0.00360  -0.00043   0.00000   0.00000
   7        3PX         0.01115   0.15119   0.14435   0.00000   0.00000
   8        3PY        -0.11881   0.00724   0.00325   0.00000   0.00000
   9        3PZ         0.00000   0.00000   0.00000   0.16418   0.30661
  10        4XX        -0.01703   0.00076   0.00028   0.00000   0.00000
  11        4YY         0.01802  -0.00073  -0.00021   0.00000   0.00000
  12        4ZZ        -0.00047   0.00002   0.00001   0.00000   0.00000
  13        4XY         0.00047   0.01616   0.01149   0.00000   0.00000
  14        4XZ         0.00000   0.00000   0.00000   0.00003   0.00027
  15        4YZ         0.00000   0.00000   0.00000   0.00517   0.00269
  16 2   C  1S         -0.01265   0.02416  -0.00010   0.00000   0.00000
  17        2S          0.02153  -0.04097   0.00024   0.00000   0.00000
  18        2PX        -0.03136  -0.21097  -0.11788   0.00000   0.00000
  19        2PY         0.23501   0.00477   0.19789   0.00000   0.00000
  20        2PZ         0.00000   0.00000   0.00000   0.19012   0.14335
  21        3S          0.05013  -0.09587   0.00026   0.00000   0.00000
  22        3PX        -0.02223  -0.12610  -0.07264   0.00000   0.00000
  23        3PY         0.14521   0.00625   0.12233   0.00000   0.00000
  24        3PZ         0.00000   0.00000   0.00000   0.16415   0.14919
  25        4XX        -0.01507   0.00240  -0.00848   0.00000   0.00000
  26        4YY         0.01458  -0.00154   0.00845   0.00000   0.00000
  27        4ZZ         0.00021  -0.00040  -0.00000   0.00000   0.00000
  28        4XY        -0.00094   0.01934   0.00569   0.00000   0.00000
  29        4XZ         0.00000   0.00000   0.00000   0.00448   0.00689
  30        4YZ         0.00000   0.00000   0.00000   0.00259  -0.00920
  31 3   C  1S         -0.01502  -0.02278  -0.00009   0.00000   0.00000
  32        2S          0.02558   0.03863   0.00027   0.00000   0.00000
  33        2PX        -0.00907   0.21217  -0.11759   0.00000   0.00000
  34        2PY        -0.23368   0.02787  -0.19908   0.00000   0.00000
  35        2PZ         0.00000   0.00000   0.00000   0.19009  -0.15217
  36        3S          0.05944   0.09042   0.00017   0.00000   0.00000
  37        3PX        -0.00877   0.12702  -0.07235   0.00000   0.00000
  38        3PY        -0.14414   0.02050  -0.12311   0.00000   0.00000
  39        3PZ         0.00000   0.00000   0.00000   0.16414  -0.15836
  40        4XX        -0.01526  -0.00129  -0.00837   0.00000   0.00000
  41        4YY         0.01468   0.00049   0.00832   0.00000   0.00000
  42        4ZZ         0.00025   0.00038  -0.00001   0.00000   0.00000
  43        4XY         0.00246   0.01915  -0.00602   0.00000   0.00000
  44        4XZ         0.00000   0.00000   0.00000   0.00451  -0.00677
  45        4YZ         0.00000   0.00000   0.00000  -0.00253  -0.00904
  46 4   C  1S          0.02731  -0.00175   0.00017   0.00000   0.00000
  47        2S         -0.04645   0.00311  -0.00046   0.00000   0.00000
  48        2PX        -0.00744  -0.24152   0.23572   0.00000   0.00000
  49        2PY         0.20220  -0.00888  -0.00360   0.00000   0.00000
  50        2PZ         0.00000   0.00000   0.00000   0.19007  -0.29410
  51        3S         -0.10798   0.00679  -0.00044   0.00000   0.00000
  52        3PX        -0.00461  -0.15068   0.14540   0.00000   0.00000
  53        3PY         0.11900  -0.00578  -0.00175   0.00000   0.00000
  54        3PZ         0.00000   0.00000   0.00000   0.16416  -0.30645
  55        4XX        -0.01706   0.00060   0.00048   0.00000   0.00000
  56        4YY         0.01804  -0.00072  -0.00041   0.00000   0.00000
  57        4ZZ        -0.00047   0.00003   0.00001   0.00000   0.00000
  58        4XY         0.00067   0.01608  -0.01157   0.00000   0.00000
  59        4XZ         0.00000   0.00000   0.00000   0.00009   0.00015
  60        4YZ         0.00000   0.00000   0.00000  -0.00517   0.00268
  61 5   C  1S         -0.01243   0.02445  -0.00009   0.00000   0.00000
  62        2S          0.02114  -0.04168   0.00020   0.00000   0.00000
  63        2PX         0.02614   0.21155  -0.11941   0.00000   0.00000
  64        2PY        -0.23012  -0.00503   0.20718   0.00000   0.00000
  65        2PZ         0.00000   0.00000   0.00000   0.19014  -0.14229
  66        3S          0.04910  -0.09655   0.00027   0.00000   0.00000
  67        3PX         0.01922   0.12656  -0.07372   0.00000   0.00000
  68        3PY        -0.14172  -0.00622   0.12759   0.00000   0.00000
  69        3PZ         0.00000   0.00000   0.00000   0.16422  -0.14836
  70        4XX        -0.01490   0.00264   0.00888   0.00000   0.00000
  71        4YY         0.01447  -0.00176  -0.00891   0.00000   0.00000
  72        4ZZ         0.00022  -0.00043  -0.00000   0.00000   0.00000
  73        4XY        -0.00115   0.01932  -0.00566   0.00000   0.00000
  74        4XZ         0.00000   0.00000   0.00000  -0.00446   0.00688
  75        4YZ         0.00000   0.00000   0.00000  -0.00263  -0.00922
  76 6   C  1S         -0.01463  -0.02319  -0.00007   0.00000   0.00000
  77        2S          0.02485   0.03953   0.00022   0.00000   0.00000
  78        2PX         0.00290  -0.21335  -0.11564   0.00000   0.00000
  79        2PY         0.22851  -0.03096  -0.20835   0.00000   0.00000
  80        2PZ         0.00000   0.00000   0.00000   0.19015   0.15091
  81        3S          0.05784   0.09155   0.00017   0.00000   0.00000
  82        3PX         0.00534  -0.12803  -0.07150   0.00000   0.00000
  83        3PY         0.14042  -0.02211  -0.12827   0.00000   0.00000
  84        3PZ         0.00000   0.00000   0.00000   0.16423   0.15736
  85        4XX        -0.01515  -0.00151   0.00880   0.00000   0.00000
  86        4YY         0.01466   0.00067  -0.00884   0.00000   0.00000
  87        4ZZ         0.00026   0.00040  -0.00001   0.00000   0.00000
  88        4XY         0.00265   0.01910   0.00573   0.00000   0.00000
  89        4XZ         0.00000   0.00000   0.00000  -0.00448  -0.00673
  90        4YZ         0.00000   0.00000   0.00000   0.00259  -0.00905
  91 7   H  1S         -0.00005   0.00001  -0.00000  -0.06489  -0.00003
  92        2S         -0.00007   0.00001  -0.00000  -0.16442  -0.00009
  93 8   H  1S         -0.00005   0.00001  -0.00000   0.06489   0.00003
  94        2S         -0.00007   0.00001  -0.00000   0.16442   0.00009
  95 9   H  1S          0.11765  -0.00612  -0.00211   0.00000   0.00000
  96        2S          0.10362  -0.00599  -0.00236   0.00000   0.00000
  97 10  H  1S         -0.05364   0.10457   0.00081   0.00000   0.00000
  98        2S         -0.04705   0.09237   0.00094   0.00000   0.00000
  99 11  H  1S         -0.06337  -0.09902   0.00151   0.00000   0.00000
 100        2S         -0.05552  -0.08755   0.00167   0.00000   0.00000
 101 12  H  1S          0.11778  -0.00524  -0.00209   0.00000   0.00000
 102        2S          0.10376  -0.00403  -0.00233   0.00000   0.00000
 103 13  H  1S         -0.05425   0.10501   0.00061   0.00000   0.00000
 104        2S         -0.04790   0.09236   0.00068   0.00000   0.00000
 105 14  H  1S         -0.06416  -0.09921   0.00129   0.00000   0.00000
 106        2S         -0.05673  -0.08718   0.00139   0.00000   0.00000
                          21        22        23        24        25
                           O         O         V         V         V
     Eigenvalues --    -0.27293  -0.25227   0.04848   0.04860   0.16065
   1 1   C  1S          0.00000   0.04039   0.00000   0.00000   0.07387
   2        2S          0.00000  -0.07766   0.00000   0.00000  -0.14207
   3        2PX         0.00000   0.00203   0.00000   0.00000   0.13258
   4        2PY         0.00000  -0.11942   0.00000   0.00000  -0.10132
   5        2PZ         0.00450   0.00000  -0.02123   0.31827   0.00000
   6        3S          0.00000  -0.24711   0.00000   0.00000  -0.53957
   7        3PX         0.00000   0.00110   0.00000   0.00000   0.24054
   8        3PY         0.00000  -0.04492   0.00000   0.00000   0.05981
   9        3PZ         0.00485   0.00000  -0.02713   0.41639   0.00000
  10        4XX         0.00000  -0.02051   0.00000   0.00000   0.00906
  11        4YY         0.00000   0.01985   0.00000   0.00000   0.00859
  12        4ZZ         0.00000   0.00113   0.00000   0.00000  -0.00451
  13        4XY         0.00000  -0.00048   0.00000   0.00000  -0.01429
  14        4XZ        -0.01306   0.00000  -0.01943  -0.00100   0.00000
  15        4YZ        -0.00005   0.00000   0.00055  -0.01015   0.00000
  16 2   C  1S          0.00000   0.04034   0.00000   0.00000  -0.13272
  17        2S          0.00000  -0.07744   0.00000   0.00000   0.23602
  18        2PX         0.00000  -0.10284   0.00000   0.00000   0.12077
  19        2PY         0.00000  -0.06075   0.00000   0.00000   0.13276
  20        2PZ         0.25793   0.00000   0.28698  -0.14310   0.00000
  21        3S          0.00000  -0.24714   0.00000   0.00000   1.03454
  22        3PX         0.00000  -0.03853   0.00000   0.00000  -0.03219
  23        3PY         0.00000  -0.02292   0.00000   0.00000   0.09313
  24        3PZ         0.26859   0.00000   0.37448  -0.18705   0.00000
  25        4XX         0.00000   0.00956   0.00000   0.00000  -0.00977
  26        4YY         0.00000  -0.01017   0.00000   0.00000  -0.02142
  27        4ZZ         0.00000   0.00116   0.00000   0.00000   0.00442
  28        4XY         0.00000   0.02043   0.00000   0.00000   0.00033
  29        4XZ        -0.00115   0.00000  -0.00349   0.01268   0.00000
  30        4YZ         0.00662   0.00000  -0.01216  -0.01263   0.00000
  31 3   C  1S          0.00000   0.04034   0.00000   0.00000   0.12344
  32        2S          0.00000  -0.07746   0.00000   0.00000  -0.22114
  33        2PX         0.00000  -0.10327   0.00000   0.00000  -0.09787
  34        2PY         0.00000   0.06000   0.00000   0.00000   0.15158
  35        2PZ         0.25270   0.00000  -0.26877  -0.17442   0.00000
  36        3S          0.00000  -0.24710   0.00000   0.00000  -0.95687
  37        3PX         0.00000  -0.03866   0.00000   0.00000   0.06889
  38        3PY         0.00000   0.02272   0.00000   0.00000   0.13338
  39        3PZ         0.26320   0.00000  -0.35072  -0.22812   0.00000
  40        4XX         0.00000   0.00986   0.00000   0.00000   0.00659
  41        4YY         0.00000  -0.01048   0.00000   0.00000   0.02246
  42        4ZZ         0.00000   0.00116   0.00000   0.00000  -0.00443
  43        4XY         0.00000  -0.02021   0.00000   0.00000  -0.00188
  44        4XZ        -0.00131   0.00000   0.00214   0.01287   0.00000
  45        4YZ        -0.00693   0.00000  -0.01352   0.01129   0.00000
  46 4   C  1S          0.00000   0.04038   0.00000   0.00000  -0.05554
  47        2S          0.00000  -0.07766   0.00000   0.00000   0.11295
  48        2PX         0.00000   0.00081   0.00000   0.00000  -0.13022
  49        2PY         0.00000   0.11938   0.00000   0.00000  -0.08157
  50        2PZ        -0.00555   0.00000  -0.01544   0.31806   0.00000
  51        3S          0.00000  -0.24696   0.00000   0.00000   0.38427
  52        3PX         0.00000   0.00064   0.00000   0.00000  -0.23936
  53        3PY         0.00000   0.04490   0.00000   0.00000   0.07994
  54        3PZ        -0.00563   0.00000  -0.02083   0.41629   0.00000
  55        4XX         0.00000  -0.02050   0.00000   0.00000  -0.00583
  56        4YY         0.00000   0.01982   0.00000   0.00000  -0.00764
  57        4ZZ         0.00000   0.00113   0.00000   0.00000   0.00454
  58        4XY         0.00000   0.00000   0.00000   0.00000  -0.01421
  59        4XZ        -0.01306   0.00000   0.01945   0.00114   0.00000
  60        4YZ         0.00001   0.00000  -0.00042   0.01014   0.00000
  61 5   C  1S          0.00000   0.04030   0.00000   0.00000  -0.00232
  62        2S          0.00000  -0.07761   0.00000   0.00000  -0.02154
  63        2PX         0.00000   0.10305   0.00000   0.00000   0.03817
  64        2PY         0.00000   0.05964   0.00000   0.00000  -0.03474
  65        2PZ        -0.25681   0.00000   0.28244  -0.14331   0.00000
  66        3S          0.00000  -0.24622   0.00000   0.00000   0.10914
  67        3PX         0.00000   0.03877   0.00000   0.00000  -0.08170
  68        3PY         0.00000   0.02230   0.00000   0.00000  -0.15293
  69        3PZ        -0.26768   0.00000   0.37040  -0.18771   0.00000
  70        4XX         0.00000   0.00955   0.00000   0.00000   0.00598
  71        4YY         0.00000  -0.01029   0.00000   0.00000  -0.00562
  72        4ZZ         0.00000   0.00111   0.00000   0.00000  -0.00468
  73        4XY         0.00000   0.02017   0.00000   0.00000   0.00075
  74        4XZ        -0.00119   0.00000   0.00334  -0.01275   0.00000
  75        4YZ         0.00667   0.00000   0.01211   0.01280   0.00000
  76 6   C  1S          0.00000   0.04031   0.00000   0.00000  -0.00673
  77        2S          0.00000  -0.07762   0.00000   0.00000   0.03581
  78        2PX         0.00000   0.10386   0.00000   0.00000  -0.06051
  79        2PY         0.00000  -0.05832   0.00000   0.00000  -0.05443
  80        2PZ        -0.25194   0.00000  -0.26398  -0.17550   0.00000
  81        3S          0.00000  -0.24634   0.00000   0.00000  -0.03165
  82        3PX         0.00000   0.03912   0.00000   0.00000   0.04902
  83        3PY         0.00000  -0.02173   0.00000   0.00000  -0.19185
  84        3PZ        -0.26257   0.00000  -0.34620  -0.22974   0.00000
  85        4XX         0.00000   0.00996   0.00000   0.00000  -0.00911
  86        4YY         0.00000  -0.01068   0.00000   0.00000   0.00670
  87        4ZZ         0.00000   0.00111   0.00000   0.00000   0.00466
  88        4XY         0.00000  -0.01992   0.00000   0.00000  -0.00135
  89        4XZ        -0.00135   0.00000  -0.00200  -0.01294   0.00000
  90        4YZ        -0.00701   0.00000   0.01346  -0.01144   0.00000
  91 7   H  1S         -0.00023   0.25597   0.00000   0.00000  -0.00002
  92        2S         -0.00071   0.48294  -0.00000   0.00003  -0.00010
  93 8   H  1S          0.00023   0.25597  -0.00000  -0.00000  -0.00002
  94        2S          0.00071   0.48294   0.00000  -0.00003  -0.00010
  95 9   H  1S          0.00000   0.07563   0.00000   0.00000   0.06054
  96        2S          0.00000   0.16578   0.00000   0.00000   0.39585
  97 10  H  1S          0.00000   0.07591   0.00000   0.00000  -0.08414
  98        2S          0.00000   0.16619   0.00000   0.00000  -0.60952
  99 11  H  1S          0.00000   0.07585   0.00000   0.00000   0.08054
 100        2S          0.00000   0.16609   0.00000   0.00000   0.57638
 101 12  H  1S          0.00000   0.07550   0.00000   0.00000  -0.05281
 102        2S          0.00000   0.16557   0.00000   0.00000  -0.32766
 103 13  H  1S          0.00000   0.07513   0.00000   0.00000   0.02724
 104        2S          0.00000   0.16498   0.00000   0.00000   0.10774
 105 14  H  1S          0.00000   0.07520   0.00000   0.00000  -0.03134
 106        2S          0.00000   0.16510   0.00000   0.00000  -0.14256
                          26        27        28        29        30
                           V         V         V         V         V
     Eigenvalues --     0.16368   0.16450   0.16581   0.23184   0.26878
   1 1   C  1S         -0.10765   0.00000  -0.04940   0.00000  -0.05115
   2        2S          0.17045   0.00000   0.10166   0.00000   0.06801
   3        2PX         0.02202   0.00000   0.14076   0.00000  -0.02469
   4        2PY         0.12395   0.00000   0.07537   0.00000   0.02826
   5        2PZ         0.00000   0.25040   0.00000   0.10333   0.00000
   6        3S          0.91742   0.00000   0.33936   0.00000   0.56195
   7        3PX         0.04353   0.00000   0.26533   0.00000  -0.06064
   8        3PY         0.13258   0.00000  -0.06768   0.00000   0.19761
   9        3PZ         0.00000   0.34161   0.00000   0.17075   0.00000
  10        4XX        -0.01744   0.00000  -0.00507   0.00000  -0.02880
  11        4YY        -0.00707   0.00000  -0.00692   0.00000   0.01290
  12        4ZZ        -0.00018   0.00000   0.00426   0.00000  -0.00114
  13        4XY        -0.00264   0.00000  -0.01544   0.00000   0.00134
  14        4XZ         0.00000  -0.00010   0.00000   0.00018   0.00000
  15        4YZ         0.00000  -0.01343   0.00000  -0.01787   0.00000
  16 2   C  1S          0.04186   0.00000  -0.01305   0.00000  -0.02175
  17        2S         -0.06676   0.00000  -0.00293   0.00000   0.02893
  18        2PX        -0.13487   0.00000  -0.02917   0.00000  -0.13492
  19        2PY         0.13313   0.00000   0.04614   0.00000   0.25258
  20        2PZ         0.00000  -0.24807   0.00000   0.10372   0.00000
  21        3S         -0.35405   0.00000   0.19351   0.00000   0.23746
  22        3PX        -0.21697   0.00000   0.07957   0.00000  -0.28961
  23        3PY         0.26502   0.00000   0.16396   0.00000   0.66671
  24        3PZ         0.00000  -0.33730   0.00000   0.17127   0.00000
  25        4XX         0.01863   0.00000   0.00524   0.00000   0.01394
  26        4YY        -0.00906   0.00000  -0.00749   0.00000  -0.02091
  27        4ZZ         0.00002   0.00000  -0.00440   0.00000  -0.00048
  28        4XY        -0.01173   0.00000   0.00108   0.00000   0.00093
  29        4XZ         0.00000   0.01153   0.00000  -0.01543   0.00000
  30        4YZ         0.00000   0.00666   0.00000  -0.00906   0.00000
  31 3   C  1S          0.06551   0.00000   0.00161   0.00000   0.02712
  32        2S         -0.10359   0.00000   0.02107   0.00000  -0.03599
  33        2PX        -0.14302   0.00000   0.05831   0.00000   0.12074
  34        2PY        -0.09672   0.00000   0.07098   0.00000   0.23821
  35        2PZ         0.00000   0.24844   0.00000   0.10365   0.00000
  36        3S         -0.55741   0.00000  -0.09638   0.00000  -0.29659
  37        3PX        -0.21844   0.00000  -0.03414   0.00000   0.24118
  38        3PY        -0.20601   0.00000   0.21369   0.00000   0.63709
  39        3PZ         0.00000   0.33798   0.00000   0.17117   0.00000
  40        4XX         0.01827   0.00000  -0.00918   0.00000  -0.01342
  41        4YY        -0.00332   0.00000   0.00881   0.00000   0.02214
  42        4ZZ         0.00019   0.00000   0.00438   0.00000   0.00059
  43        4XY         0.01180   0.00000  -0.00164   0.00000   0.00337
  44        4XZ         0.00000  -0.01164   0.00000  -0.01551   0.00000
  45        4YZ         0.00000   0.00652   0.00000   0.00892   0.00000
  46 4   C  1S         -0.10584   0.00000   0.07203   0.00000   0.05166
  47        2S          0.16675   0.00000  -0.13725   0.00000  -0.06858
  48        2PX        -0.02902   0.00000  -0.14009   0.00000  -0.01565
  49        2PY        -0.12084   0.00000   0.09971   0.00000   0.02881
  50        2PZ         0.00000  -0.25114   0.00000   0.10319   0.00000
  51        3S          0.90572   0.00000  -0.53379   0.00000  -0.56885
  52        3PX        -0.05230   0.00000  -0.26264   0.00000  -0.04305
  53        3PY        -0.13166   0.00000  -0.04254   0.00000   0.19806
  54        3PZ         0.00000  -0.34295   0.00000   0.17053   0.00000
  55        4XX        -0.01713   0.00000   0.00900   0.00000   0.02885
  56        4YY        -0.00690   0.00000   0.00812   0.00000  -0.01287
  57        4ZZ        -0.00030   0.00000  -0.00421   0.00000   0.00116
  58        4XY        -0.00320   0.00000  -0.01536   0.00000  -0.00059
  59        4XZ         0.00000   0.00024   0.00000  -0.00000   0.00000
  60        4YZ         0.00000  -0.01347   0.00000   0.01786   0.00000
  61 5   C  1S          0.03973   0.00000  -0.13373   0.00000   0.02373
  62        2S         -0.06221   0.00000   0.23385   0.00000  -0.03136
  63        2PX         0.12755   0.00000  -0.12032   0.00000  -0.13069
  64        2PY        -0.12983   0.00000  -0.12927   0.00000   0.25153
  65        2PZ         0.00000   0.25337   0.00000   0.10288   0.00000
  66        3S         -0.34216   0.00000   1.06714   0.00000  -0.26290
  67        3PX         0.20754   0.00000   0.02337   0.00000  -0.28664
  68        3PY        -0.25950   0.00000  -0.09793   0.00000   0.67027
  69        3PZ         0.00000   0.34698   0.00000   0.17006   0.00000
  70        4XX         0.01832   0.00000  -0.00966   0.00000  -0.01403
  71        4YY        -0.00936   0.00000  -0.02136   0.00000   0.02121
  72        4ZZ         0.00016   0.00000   0.00402   0.00000   0.00056
  73        4XY        -0.01148   0.00000   0.00041   0.00000  -0.00087
  74        4XZ         0.00000   0.01169   0.00000   0.01542   0.00000
  75        4YZ         0.00000   0.00691   0.00000   0.00897   0.00000
  76 6   C  1S          0.06642   0.00000   0.12253   0.00000  -0.02958
  77        2S         -0.10488   0.00000  -0.21636   0.00000   0.03919
  78        2PX         0.14077   0.00000   0.09378   0.00000   0.11447
  79        2PY         0.09469   0.00000  -0.15180   0.00000   0.23690
  80        2PZ         0.00000  -0.25301   0.00000   0.10294   0.00000
  81        3S         -0.56861   0.00000  -0.97002   0.00000   0.32710
  82        3PX         0.20649   0.00000  -0.06541   0.00000   0.23336
  83        3PY         0.20755   0.00000  -0.14852   0.00000   0.63890
  84        3PZ         0.00000  -0.34633   0.00000   0.17016   0.00000
  85        4XX         0.01848   0.00000   0.00580   0.00000   0.01335
  86        4YY        -0.00346   0.00000   0.02271   0.00000  -0.02226
  87        4ZZ         0.00011   0.00000  -0.00406   0.00000  -0.00070
  88        4XY         0.01156   0.00000  -0.00217   0.00000  -0.00338
  89        4XZ         0.00000  -0.01173   0.00000   0.01552   0.00000
  90        4YZ         0.00000   0.00681   0.00000  -0.00880   0.00000
  91 7   H  1S          0.00012  -0.00000  -0.00002   0.19737  -0.00008
  92        2S          0.00063  -0.00000  -0.00012   1.24706  -0.00061
  93 8   H  1S          0.00012   0.00000  -0.00002  -0.19737  -0.00008
  94        2S          0.00063   0.00000  -0.00012  -1.24706  -0.00061
  95 9   H  1S         -0.04496   0.00000  -0.04602   0.00000   0.05333
  96        2S         -0.40400   0.00000  -0.29241   0.00000  -0.05493
  97 10  H  1S          0.01705   0.00000   0.02131   0.00000   0.02335
  98        2S          0.15495   0.00000   0.06183   0.00000  -0.01755
  99 11  H  1S          0.02595   0.00000  -0.02569   0.00000  -0.02895
 100        2S          0.23958   0.00000  -0.10336   0.00000   0.02298
 101 12  H  1S         -0.04402   0.00000   0.05539   0.00000  -0.05347
 102        2S         -0.39658   0.00000   0.37790   0.00000   0.05887
 103 13  H  1S          0.01685   0.00000  -0.08206   0.00000  -0.02420
 104        2S          0.15021   0.00000  -0.61625   0.00000   0.03026
 105 14  H  1S          0.02894   0.00000   0.07711   0.00000   0.03029
 106        2S          0.25437   0.00000   0.57256   0.00000  -0.03691
                          31        32        33        34        35
                           V         V         V         V         V
     Eigenvalues --     0.26880   0.28526   0.28531   0.30373   0.34555
   1 1   C  1S         -0.00445   0.04726   0.00089   0.01803  -0.00069
   2        2S          0.00641  -0.05093  -0.00100  -0.02129  -0.00135
   3        2PX         0.31680  -0.00215   0.01596  -0.00437   0.04794
   4        2PY         0.00850   0.19407   0.00449   0.16426  -0.01934
   5        2PZ         0.00000   0.00000   0.00000   0.00000   0.00000
   6        3S          0.04745  -0.89938  -0.01745  -0.51711   0.04638
   7        3PX         0.80362  -0.01208  -0.07944  -0.01931   0.13365
   8        3PY         0.02713   0.60409   0.01173   0.52189  -0.07018
   9        3PZ         0.00000   0.00000   0.00000   0.00000   0.00000
  10        4XX        -0.00148  -0.00080  -0.00003   0.00716   0.00010
  11        4YY         0.00060   0.00425   0.00003  -0.00511   0.00055
  12        4ZZ        -0.00016   0.00595   0.00013  -0.00171  -0.00081
  13        4XY        -0.01914   0.00002  -0.00551   0.00032  -0.01426
  14        4XZ         0.00000   0.00000   0.00000   0.00000   0.00000
  15        4YZ         0.00000   0.00000   0.00000   0.00000   0.00000
  16 2   C  1S         -0.04479   0.02270   0.04215   0.01867   0.00769
  17        2S          0.06015  -0.02439  -0.04534  -0.02159   0.01053
  18        2PX         0.09481   0.07289   0.15122   0.14155   0.19219
  19        2PY        -0.10665   0.05940   0.08097   0.08444   0.13709
  20        2PZ         0.00000   0.00000   0.00000   0.00000   0.00000
  21        3S          0.48597  -0.43055  -0.79742  -0.52690  -0.48581
  22        3PX         0.33969   0.27965   0.43841   0.44691   0.69317
  23        3PY        -0.21161   0.09435   0.30280   0.26916   0.48146
  24        3PZ         0.00000   0.00000   0.00000   0.00000   0.00000
  25        4XX        -0.00411   0.00515   0.00065  -0.00188  -0.00127
  26        4YY        -0.00980  -0.00342   0.00258   0.00406  -0.00519
  27        4ZZ        -0.00101   0.00285   0.00529  -0.00164   0.00843
  28        4XY         0.02278  -0.00123   0.00340  -0.00628  -0.00902
  29        4XZ         0.00000   0.00000   0.00000   0.00000   0.00000
  30        4YZ         0.00000   0.00000   0.00000   0.00000   0.00000
  31 3   C  1S         -0.04202  -0.02531   0.04053   0.01860  -0.00729
  32        2S          0.05646   0.02720  -0.04362  -0.02157  -0.00995
  33        2PX         0.10965  -0.08278   0.14675   0.14194  -0.17828
  34        2PY         0.13766   0.06373  -0.07557  -0.08376   0.13224
  35        2PZ         0.00000   0.00000   0.00000   0.00000   0.00000
  36        3S          0.45637   0.48028  -0.76723  -0.52590   0.45812
  37        3PX         0.37027  -0.30792   0.42069   0.44795  -0.64494
  38        3PY         0.29599   0.11091  -0.29415  -0.26818   0.46174
  39        3PZ         0.00000   0.00000   0.00000   0.00000   0.00000
  40        4XX        -0.00541  -0.00515   0.00036  -0.00195  -0.00003
  41        4YY        -0.00754   0.00323   0.00271   0.00410   0.00609
  42        4ZZ        -0.00095  -0.00319   0.00508  -0.00165  -0.00794
  43        4XY        -0.02244  -0.00109  -0.00352   0.00623  -0.00939
  44        4XZ         0.00000   0.00000   0.00000   0.00000   0.00000
  45        4YZ         0.00000   0.00000   0.00000   0.00000   0.00000
  46 4   C  1S          0.00202  -0.04709  -0.00209   0.01789  -0.00036
  47        2S         -0.00219   0.05079   0.00222  -0.02126   0.00001
  48        2PX         0.31722  -0.00111   0.01657  -0.00266  -0.04817
  49        2PY        -0.00148   0.19342   0.00766  -0.16429   0.01038
  50        2PZ         0.00000   0.00000   0.00000   0.00000   0.00000
  51        3S         -0.02341   0.89719   0.03899  -0.51527   0.01742
  52        3PX         0.80561   0.01008  -0.07965  -0.01391  -0.13113
  53        3PY         0.00651   0.60265   0.02472  -0.52273   0.03668
  54        3PZ         0.00000   0.00000   0.00000   0.00000   0.00000
  55        4XX         0.00182   0.00084  -0.00010   0.00712  -0.00018
  56        4YY        -0.00070  -0.00424  -0.00013  -0.00510   0.00034
  57        4ZZ        -0.00001  -0.00594  -0.00024  -0.00172  -0.00029
  58        4XY         0.01925  -0.00028   0.00552  -0.00017  -0.01425
  59        4XZ         0.00000   0.00000   0.00000   0.00000   0.00000
  60        4YZ         0.00000   0.00000   0.00000   0.00000   0.00000
  61 5   C  1S          0.04665  -0.02188  -0.04164   0.01743   0.00849
  62        2S         -0.06138   0.02364   0.04497  -0.02109   0.01025
  63        2PX         0.09398   0.06925   0.15126  -0.14189  -0.18732
  64        2PY        -0.11000   0.06131   0.07825  -0.08156  -0.13453
  65        2PZ         0.00000   0.00000   0.00000   0.00000   0.00000
  66        3S         -0.51603   0.41897   0.79423  -0.50770  -0.49495
  67        3PX         0.33609   0.27863   0.44010  -0.45397  -0.68300
  68        3PY        -0.22362   0.08341   0.29809  -0.25848  -0.46305
  69        3PZ         0.00000   0.00000   0.00000   0.00000   0.00000
  70        4XX         0.00461  -0.00518  -0.00056  -0.00205  -0.00087
  71        4YY         0.00993   0.00367  -0.00244   0.00401  -0.00512
  72        4ZZ         0.00101  -0.00278  -0.00523  -0.00178   0.00846
  73        4XY        -0.02329   0.00129  -0.00342  -0.00603  -0.00869
  74        4XZ         0.00000   0.00000   0.00000   0.00000   0.00000
  75        4YZ         0.00000   0.00000   0.00000   0.00000   0.00000
  76 6   C  1S          0.04302   0.02431  -0.04031   0.01749  -0.00784
  77        2S         -0.05659  -0.02626   0.04352  -0.02110  -0.00947
  78        2PX         0.10812  -0.07930   0.14758  -0.14313   0.17295
  79        2PY         0.14293   0.06487  -0.07325   0.07938  -0.12895
  80        2PZ         0.00000   0.00000   0.00000   0.00000   0.00000
  81        3S         -0.47555  -0.46559   0.76827  -0.50852   0.45904
  82        3PX         0.36601  -0.30654   0.42673  -0.45813   0.63353
  83        3PY         0.31164   0.09725  -0.28719   0.25041  -0.43845
  84        3PZ         0.00000   0.00000   0.00000   0.00000   0.00000
  85        4XX         0.00597   0.00518  -0.00035  -0.00220  -0.00043
  86        4YY         0.00753  -0.00351  -0.00257   0.00417   0.00602
  87        4ZZ         0.00092   0.00308  -0.00506  -0.00178  -0.00785
  88        4XY         0.02300   0.00116   0.00350   0.00594  -0.00915
  89        4XZ         0.00000   0.00000   0.00000   0.00000   0.00000
  90        4YZ         0.00000   0.00000   0.00000   0.00000   0.00000
  91 7   H  1S         -0.00109  -0.00004  -0.00006  -0.04508  -0.00000
  92        2S         -0.00796  -0.00014   0.00164  -0.58226   0.00000
  93 8   H  1S         -0.00109  -0.00004  -0.00006  -0.04508  -0.00000
  94        2S         -0.00796  -0.00014   0.00164  -0.58226   0.00000
[...]
     1         -0.28361540          1.82687384          2.59041775
     1          3.42099778         -0.41386296         -0.20543757
     1          1.15769075         -0.85874620          3.83365251
     1         -3.69455505         -0.88404708          3.83416494
     1         -5.95862482         -1.32688197         -0.20380449
     1         -3.63821890         -0.74961234         -4.11807780
     1          1.09955042         -0.99497707         -4.11879233

 Electric dipole moment (dipole orientation):
 (Debye = 10**-18 statcoulomb cm , SI units = C m)
                  (au)            (Debye)         (10**-30 SI)
   Tot        0.135584D+00      0.344620D+00      0.114953D+01
   x          0.000000D+00      0.000000D+00      0.000000D+00
   y          0.000000D+00      0.000000D+00      0.000000D+00
   z          0.135584D+00      0.344620D+00      0.114953D+01

 Dipole polarizability, Alpha (dipole orientation).
 (esu units = cm**3 , SI units = C**2 m**2 J**-1)
 Alpha(0;0):
               (au)            (10**-24 esu)      (10**-40 SI)
   iso        0.552960D+02      0.819403D+01      0.911708D+01
   aniso      0.325462D+02      0.482285D+01      0.536615D+01
   xx         0.644145D+02      0.954525D+01      0.106205D+02
   yx         0.404826D+01      0.599891D+00      0.667468D+00
   yy         0.341737D+02      0.506401D+01      0.563448D+01
   zx        -0.294808D-02     -0.436861D-03     -0.486073D-03
   zy         0.776001D-02      0.114992D-02      0.127945D-02
   zz         0.672999D+02      0.997282D+01      0.110963D+02

 First dipole hyperpolarizability, Beta (dipole orientation).
 ||, _|_  parallel and perpendicular components, (z) with respect to z axis,
 vector components x,y,z.  Values do not include the 1/n! factor of 1/2.
 (esu units = statvolt**-1 cm**4 , SI units = C**3 m**3 J**-2)
 Beta(0;0,0):
               (au)            (10**-30 esu)      (10**-50 SI)
   || (z)     0.690882D+01      0.596869D-01      0.221522D-01
   _|_(z)     0.230294D+01      0.198956D-01      0.738406D-02
   x         -0.421916D-01     -0.364503D-03     -0.135282D-03
   y          0.208618D-01      0.180230D-03      0.668905D-04
   z          0.345441D+02      0.298434D+00      0.110761D+00
   ||         0.690883D+01      0.596869D-01      0.221522D-01
   xxx       -0.294060D-03     -0.254045D-05     -0.942862D-06
   xxy        0.317287D-01      0.274111D-03      0.101734D-03
   yxy       -0.136880D-01     -0.118253D-03     -0.438885D-04
   yyy       -0.154469D-01     -0.133449D-03     -0.495284D-04
   xxz        0.975840D+00      0.843050D-02      0.312890D-02
   yxz       -0.478496D+01     -0.413384D-01     -0.153423D-01
   yyz        0.279961D+02      0.241864D+00      0.897656D-01
   zxz       -0.818566D-04     -0.707177D-06     -0.262462D-06
   zyz       -0.932785D-02     -0.805854D-04     -0.299085D-04
   zzz       -0.174572D+02     -0.150817D+00     -0.559742D-01

 ----------------------------------------------------------------------
 1\1\GINC-CNODE02\Freq\RHF\6-31G(d)\C6H8\TNGUYEN38\27-Oct-2020\0\\#N Ge
 om=AllCheck Guess=TCheck SCRF=Check GenChk RHF/6-31G(d) Freq\\Benzen21
 \\0,1\C,0.730796026,0.2670109813,0.1539741998\C,0.0462299703,0.1884636
 889,-1.1909538754\C,-1.3059392969,0.9115262984,-1.1843399196\C,-2.0814
 91883,0.638100592,0.0833641519\C,-1.4514408509,0.3930344894,1.22206696
 6\C,0.0221860566,0.3451521399,1.2699423597\H,-1.1475397672,1.987258311
 4,-1.2673826309\H,-0.1012019255,-0.86224984,-1.4430730407\H,1.80517057
 18,0.2080118654,0.1873760331\H,0.6820331654,0.6028022856,-1.9669321921
 \H,-1.8841254762,0.6194813201,-2.0552693526\H,-3.1559136647,0.69628742
 88,0.0501806552\H,-2.0001978761,0.2364923068,2.1345141597\H,0.50523073
 61,0.3627190845,2.2314763579\\Version=ES64L-G16RevA.03\State=1-A\HF=-2
 31.8318975\RMSD=4.978e-10\RMSF=2.587e-05\ZeroPoint=0.1316512\Thermal=0
 .1365093\Dipole=0.0047027,0.0100527,-0.1351289\DipoleDeriv=-0.014659,0
 .025383,0.0256492,-0.0800361,-0.2121266,0.0757226,-0.0376792,0.040796,
 0.0740792,0.0600221,0.043903,-0.0652897,0.0914946,0.2467165,-0.0131264
 ,-0.1150479,0.0115826,0.1312232,0.0471075,0.0340943,0.0653253,0.072090
 2,0.2435205,0.034819,0.1214178,0.0070515,0.1472499,-0.0146757,0.033804
 4,-0.0267689,-0.0772773,-0.1886187,-0.1206355,0.0204712,-0.0780856,0.0
 507208,0.1405152,-0.0102183,-0.1036929,0.0577747,-0.1533234,-0.0506559
 ,-0.2658152,-0.0029448,0.0069604,0.1141859,-0.0252592,0.1082949,0.0146
 965,-0.1576217,0.026677,0.2785373,-0.0247658,0.0377618,0.0480666,-0.04
 69621,0.0723287,0.0082598,-0.1934987,0.0544736,-0.0268342,0.0242222,-0
 .0177938,0.051019,-0.0336782,-0.0731527,0.0083432,-0.1779894,-0.077611
 ,0.0333144,-0.0508169,-0.0363046,-0.1585147,0.0199213,-0.0247428,0.012
 1874,0.1338612,-0.014734,-0.0202858,-0.0014831,0.0222589,-0.0480174,-0
 .0379464,0.111936,-0.0564553,0.0192252,0.0754499,0.1042506,0.0421456,-
 0.1010478,-0.0328737,-0.0190164,-0.1108901,-0.0361463,0.0340016,-0.057
 3977,-0.1058256,-0.0228012,-0.1311231,-0.1609586,0.0161122,0.0144824,0
 .008269,0.1289208,0.0312037,0.0088026,0.0184908,0.0296012,-0.0215201,-
 0.0071247,0.0882433,-0.0185532,0.1353426,0.0387391,0.085516,0.0389766,
 -0.0977804,-0.0096971,0.0069871,-0.0817224,-0.0046471,0.1415904,-0.002
 9244,-0.080822,-0.002368,-0.1158057\Polar=64.428174,-3.9889146,34.3650
 649,-0.3937415,-2.5811846,67.0948462\PolarDeriv=3.2370502,-0.1237847,0
 .2997826,-2.7518397,-0.1098409,3.1650088,1.90085,5.2336419,-1.8786102,
 -0.0800486,-3.9383824,0.311503,-8.4160898,1.5368858,-0.5460895,6.62154
 13,-1.2259329,-4.5959559,1.1729123,-2.2681901,1.661724,1.2183078,1.505
 6068,-2.8708343,-3.3938659,-0.7090204,6.1851525,0.7076862,3.5543218,-0
 .608711,0.7508361,0.4262134,2.0901823,-3.8416904,-0.0312032,2.8355531,
 -1.374708,2.0034645,-2.1228196,0.9632064,0.9007795,3.1543124,3.2164867
 ,0.3844743,-7.3026545,0.3777607,2.4180578,1.0915743,0.612947,0.0622794
 ,0.8823626,3.855585,0.3180581,3.7832593,-2.3206717,0.3817744,-0.281785
 5,-2.2161909,0.2479483,-3.142704,-0.68859,-5.1928087,3.1471146,0.09327
 47,-4.0408814,-0.7585521,-7.8622248,1.686722,-0.5790102,-6.7763755,1.4
 042089,-5.4465449,15.1962008,-2.8781805,1.0684484,2.1620892,-0.8377779
 ,1.5371609,-1.2122797,4.3076833,-3.2085864,-0.7713554,4.5624253,1.2930
 028,7.0196879,-1.9127064,0.4881539,7.3030286,-0.2713102,3.185977,-15.9
 820732,2.7214965,-0.9006045,2.1086876,-0.5757995,-1.6272317,0.2346506,
 -4.3220744,1.7399994,-0.221986,4.7017826,-0.3616624,7.0533528,-1.30760
 44,0.6785112,-7.15193,0.5066316,2.0463454,0.1429654,1.5181613,0.988228
 6,-0.7291157,-0.3222523,-0.1758843,0.179517,-0.4916119,9.614046,0.0677
 878,-2.6969871,1.3676428,0.0165392,-0.0471117,-0.7584695,-0.5268448,2.
 313906,-1.7054999,-0.0215395,-1.3625698,-0.8041049,-0.9990188,-0.40582
 17,0.0929187,-0.1888678,0.6862089,-8.534276,0.171197,-3.394543,-1.9464
 808,-0.0959882,0.0263744,-1.4380693,0.6261154,-2.6466021,-2.597784,11.
 4761275,-0.7952857,0.3398277,0.4600576,0.0144856,0.4202968,-0.8264862,
 1.2910403,-0.1377034,0.2354536,0.5240692,-0.2365257,0.3738109,0.042363
 6,-0.0755451,1.7579737,-0.2563385,-0.4259089,3.3299875,1.298195,0.1351
 881,-3.2011366,-0.6193325,2.7575544,1.1277552,1.3997001,0.6344021,-0.8
 351824,-2.2407072,1.3244842,-1.7822022,-0.5588707,-0.7517917,3.6046985
 ,1.2706947,-6.0858655,-2.7680993,-0.7724177,0.0307054,-3.1157889,-0.20
 60037,-2.8547462,-0.7824863,-1.0970611,0.0912504,-0.4608684,-2.0322363
 ,-1.0564767,-1.6280407,-0.2028966,-0.4874306,-3.6318197,-0.7418776,-7.
 2754002,-11.5133568,0.7516941,-0.340359,-0.0847047,0.0513597,-0.349297
 1,0.7571011,-1.3753216,0.0232622,0.3192228,0.3410533,0.478039,-0.07677
 27,0.128252,-0.1836318,-1.6451092,0.3831879,-0.5412953,-2.0004517,-0.5
 739077,-0.2585108,3.2298991,0.4035925,-3.1439678,0.0806651,-1.6766469,
 -0.2342006,0.3575355,1.1735008,-1.3102137,2.2008791,0.1894257,0.423459
 9,-3.2985893,-1.1248425,7.9193711,1.4256565,0.0995505,0.1842796,2.9555
 479,-0.0469438,3.0374134,-0.4044498,1.5617963,-0.1391961,0.0395225,1.0
 685266,0.4123761,1.8332653,-0.0693265,0.2573676,3.1034164,0.1014195,8.
 9037486\HyperPolar=0.0992407,0.3664758,1.6500941,6.1986188,-0.9138376,
 -4.5674014,-27.3100906,-1.3639982,-5.7182706,16.74686\Quadrupole=1.084
 3939,-2.3536087,1.2692148,-0.1906389,-0.0207844,-0.2768422\PG=C01 [X(C
 6H8)]\NImag=0\\0.82344432,-0.03978976,0.17985714,-0.15952584,0.0475788
 9,0.82343459,-0.13805418,-0.00504679,-0.05868692,0.57280503,0.00154636
 ,-0.08762303,-0.00515556,0.03328595,0.61092942,-0.05283784,-0.00769775
 ,-0.21460202,-0.05140733,-0.01606278,0.61400046,-0.02067951,0.00751924
 ,-0.00561168,-0.18731245,0.05532560,-0.00135348,0.56548789,-0.00373753
 ,0.00638676,0.00286668,0.05514994,-0.12680119,-0.00299878,0.02434940,0
 .60628603,-0.03305464,0.01493593,0.00421768,0.00336943,0.00260603,-0.0
 9822101,0.05203241,0.01636954,0.62620064,0.00015263,-0.00114527,-0.006
 87460,-0.02328124,-0.00826005,0.03034490,-0.14613430,-0.00768486,0.057
 11983,0.80183023,-0.00202855,0.00084939,-0.00166811,0.00774567,0.00895
 522,-0.01388102,-0.01522039,-0.09218843,0.02476440,-0.05575343,0.20835
 840,0.00723179,0.00291703,-0.00828110,0.00492638,-0.00277478,0.0042356
 9,0.06190668,0.02275210,-0.20209834,0.15167563,-0.14436039,0.81668924,
 -0.03378851,0.00001493,0.02205481,0.00217001,-0.00106498,-0.00351237,0
 .01738604,-0.00487151,0.01384243,-0.24607292,0.04963081,-0.19273655,0.
 71080754,0.00483549,0.00997126,-0.00236866,0.00064263,-0.00873442,0.00
 193129,0.00217174,0.00412962,0.01183522,0.04676158,-0.08971335,0.08878
 856,-0.03154451,0.18563277,0.03030878,-0.00382706,0.01345299,-0.002168
 30,0.00265876,-0.00122441,-0.01222313,0.01060286,-0.03020714,-0.201369
 39,0.09388783,-0.50083459,0.06849079,-0.14675879,0.93430643,-0.2750679
 4,0.02378492,0.21474462,0.01726958,-0.00246087,-0.01096001,0.00176092,
 -0.00136569,0.00355795,-0.02994994,0.00324484,-0.02487502,-0.27396833,
 0.00203178,0.00493416,0.72165431,0.01931226,-0.07221837,-0.02474910,0.
 00072204,0.00667286,-0.00621215,0.00047829,-0.00789334,-0.00292386,0.0
 0930470,0.00908122,0.00247846,0.00345464,-0.07606317,0.00488535,-0.026
 19816,0.15935242,0.22283276,-0.02957753,-0.48937830,0.01585532,-0.0053
 7363,-0.03263470,0.00248748,-0.00376716,-0.00165060,-0.03232400,0.0035
 5368,0.01051468,-0.01473007,0.00302408,-0.12778902,-0.08889029,0.02998
 995,0.94979180,0.00160392,-0.00105313,0.00166530,0.00613649,0.03554152
 ,0.00006179,-0.06617930,-0.04370784,0.00125992,-0.00082473,-0.01901745
 ,0.00292384,-0.00136193,0.00033607,0.00060446,0.00006046,-0.00200345,-
 0.00130497,0.06793398,-0.00026185,-0.00014743,0.00073716,-0.00288680,-
 0.01732632,-0.00039678,-0.03766679,-0.31912636,0.01555943,-0.00297693,
 -0.00381570,0.00642398,-0.00347211,0.00159786,-0.00139403,0.00213463,-
 0.00001253,-0.00042434,0.04336870,0.34876414,-0.00031624,-0.00070499,0
 .00038272,0.00066221,-0.00049535,0.00006867,0.00091817,0.02144253,-0.0
 5923949,0.00439615,0.03456559,-0.00573395,0.00267904,0.00029818,-0.002
 12035,0.00163076,0.00096040,0.00072589,-0.00693761,-0.02053227,0.06185
 348,-0.00025517,-0.01599772,-0.00493685,-0.06563214,-0.04026529,-0.007
 69034,0.00597251,0.03511085,0.00560860,0.00169846,-0.00084898,-0.00171
 356,0.00008783,-0.00209413,0.00095806,-0.00112420,0.00041838,-0.000485
 51,-0.00664297,0.00430867,0.00074296,0.06659558,-0.00190788,0.00226049
 ,-0.00536525,-0.03474723,-0.30743938,-0.05523835,-0.00271864,-0.017278
 97,-0.00239698,-0.00025942,-0.00012554,-0.00082518,0.00232501,0.000083
 24,0.00048667,-0.00315317,0.00136790,0.00170188,0.00442150,-0.00032365
 ,-0.00004067,0.03901316,0.33588075,-0.00417690,-0.03454686,-0.01236429
 ,-0.00649180,-0.06153521,-0.07136123,-0.00066795,0.00036189,0.00013490
 ,0.00036897,0.00057058,0.00026849,-0.00134283,-0.00119798,0.00060665,-
 0.00310707,0.00026845,-0.00213653,-0.00064546,0.00010223,0.00131441,0.
 01310630,0.06436984,0.07599987,-0.37423626,0.01787541,-0.00894905,-0.0
 0843222,0.00152311,0.00332264,0.00031712,-0.00127383,-0.00245014,0.000
 68407,-0.00016095,-0.00017191,0.00094465,0.00056324,0.00380987,-0.0149
 5187,0.00103977,-0.00415272,0.00009119,0.00014246,-0.00003383,-0.00044
 389,-0.00024241,-0.00075146,0.39533909,0.01764026,-0.04612923,-0.00381
 631,-0.00059581,0.00462989,0.00244138,-0.00089817,0.00136160,0.0005957
 3,-0.00079360,-0.00092377,-0.00084135,0.00105406,0.01348448,-0.0016483
 8,0.00168954,0.00896112,0.00166793,0.00069524,-0.00025824,-0.00001331,
 0.00099741,-0.00077242,0.00074920,-0.01979303,0.02947477,-0.01399649,-
 0.00168654,-0.07023548,-0.02994463,0.00395245,0.00484494,-0.00155208,-
 0.00246275,-0.00615378,0.00067361,0.00016333,-0.00043646,0.00100513,-0
 .00078516,-0.00503358,0.03420052,-0.00208817,0.00663694,-0.00014946,0.
 00023895,0.00017756,-0.00022284,-0.00098238,-0.00066431,0.00947604,0.0
 0124885,0.06742146,0.01377397,0.00943363,-0.01521888,-0.15674948,-0.06
 407507,0.11810994,-0.01827024,-0.01371994,0.02541684,-0.00543903,0.004
 25517,-0.00305808,-0.00007536,0.00039967,0.00037168,-0.00246155,-0.000
 31481,-0.00340887,0.00233835,-0.00005035,0.00019617,-0.00290807,-0.002
 89412,0.00325228,0.00111686,-0.00007243,0.00096443,0.16907537,0.002045
 72,0.00133355,-0.00508709,-0.06568904,-0.10240301,0.08085623,0.0124707
 0,0.00679985,-0.01631166,0.00422005,-0.00151693,0.00113845,0.00045148,
 0.00003402,-0.00017143,-0.00041879,0.00036293,0.00039230,-0.00066231,0
 .00152766,-0.00073488,-0.02206755,-0.01443784,0.02711526,0.00034248,0.
 00037076,0.00069586,0.06926405,0.10728521,0.02297701,0.01339859,-0.024
 18308,0.11612927,0.07877124,-0.20138416,-0.00129912,-0.00040034,0.0016
 9422,0.00012676,0.00007691,0.00060537,-0.00074638,0.00078661,0.0008023
 9,-0.00551411,-0.00002284,-0.00439482,0.00000683,-0.00080227,0.0004373
 9,-0.00549442,-0.00207219,0.00781223,-0.00052834,-0.00049648,0.0016042
 3,-0.12716218,-0.08712156,0.21820224,-0.00565613,0.00379406,0.00322575
 ,-0.01650347,-0.00972359,-0.02852927,-0.14009790,-0.04125636,-0.120826
 65,0.01406085,0.00765801,0.01919407,-0.00308165,-0.00084778,0.00341421
 ,-0.00010161,0.00051057,-0.00036247,-0.00288160,-0.00236693,-0.0042415
 3,0.00234689,-0.00009253,-0.00008332,-0.00073533,-0.00025819,-0.001810
 01,-0.00004556,-0.00046228,0.00058963,0.15101592,0.00430069,-0.0013327
 4,-0.00114312,0.01105941,0.00422274,0.01762950,-0.04300324,-0.08079482
 ,-0.06542542,0.00473637,0.00193266,0.00927595,-0.00123457,0.00032438,0
 .00021123,0.00033238,0.00013665,0.00009681,-0.02055071,-0.01017098,-0.
 03130514,-0.00071037,0.00128459,0.00081767,0.00048376,0.00039178,0.001
 09310,-0.00034154,0.00013610,-0.00040694,0.04455284,0.08378208,0.00007
 718,-0.00009976,0.00064090,0.00168976,0.00008775,0.00248261,-0.1190902
 3,-0.06321077,-0.23960820,-0.01976846,-0.00887052,-0.02507012,0.005484
 28,0.00064276,-0.00373493,0.00074519,-0.00085521,0.00072642,0.00171146
 ,-0.00081145,0.00351630,0.00001755,0.00092630,0.00067518,0.00006575,0.
 00001567,0.00009600,-0.00065785,0.00038830,0.00007262,0.13002387,0.069
 69165,0.25974742,0.00071944,-0.00017492,0.00022366,0.00002061,-0.00186
 171,0.00263899,-0.01023283,0.00233460,-0.00405103,-0.37455660,0.017418
 97,-0.00980471,-0.01277148,0.00034375,0.00289788,0.00124221,0.00092474
 ,-0.00328149,-0.00051663,-0.00041846,0.00071195,0.00007420,0.00015502,
 0.00005012,-0.00007515,-0.00010572,0.00003028,-0.00085367,0.00056557,-
 0.00004843,0.00114981,0.00031754,0.00054597,0.39529302,-0.00074178,-0.
 00100806,0.00070473,-0.00114068,0.00093574,0.00037645,-0.00477977,0.00
 559136,-0.00264888,0.01629463,-0.04760424,0.00830834,0.00690059,0.0088
 0760,-0.00087485,0.00095251,0.01271687,0.00438309,0.00100439,-0.000806
 50,-0.00070603,0.00066563,-0.00022034,0.00000028,-0.00011426,-0.001474
 94,0.00007484,-0.00051900,0.00054831,0.00001554,0.00004532,0.00042534,
 0.00032220,-0.01928744,0.03083574,-0.00070904,-0.00025760,-0.00038655,
 0.00182252,0.00339322,-0.00543282,0.02854013,-0.00382558,0.00566955,-0
 .00487635,0.00623800,-0.06844404,-0.03491612,0.00260590,0.00461743,-0.
 00043455,0.00350814,-0.00456212,0.00037988,0.00093340,-0.00055682,0.00
 024376,-0.00028880,0.00015569,-0.00007661,-0.00035364,0.00034011,0.001
 69112,-0.00099839,0.00005817,-0.00099469,-0.00084739,0.00151937,0.0106
 2394,-0.00804349,0.06611630,-0.00705806,-0.00001245,-0.00281620,-0.000
 07970,-0.00030219,-0.00053870,-0.00186944,0.00103415,-0.00226663,0.015
 12336,0.00345034,-0.01773962,-0.15193798,-0.02350399,0.13358316,-0.010
 37909,-0.00496083,0.03219259,0.00012801,0.00010579,-0.00027519,0.00010
 119,0.00002516,0.00014541,-0.00088820,0.00083849,0.00164089,0.00012390
 ,-0.00006740,0.00012683,0.00039082,0.00010702,-0.00071887,0.00129241,-
 0.00036724,0.00027031,0.15398806,-0.00027910,0.00080490,-0.00000895,-0
 .00019309,-0.00034605,0.00064548,0.00219074,0.01373861,0.00382512,-0.0
 0405237,0.00587098,0.00670560,-0.02323004,-0.05282121,0.04054759,0.002
 21119,0.00352699,-0.00155116,0.00146705,0.00014762,-0.00270094,0.00015
 004,-0.00004256,0.00003706,0.00012551,-0.00001131,-0.00000203,-0.00021
 058,0.00005343,-0.00002410,-0.00135468,-0.00038596,0.00175444,-0.00032
 006,-0.00876125,-0.00205843,0.02353613,0.03856142,-0.00107175,0.000258
 94,0.00053156,-0.00054711,0.00011284,0.00058660,-0.00455608,0.00253049
 ,-0.00126032,0.02003246,0.00520443,-0.02214354,0.13128954,0.04103790,-
 0.28731922,-0.00389098,-0.00063652,0.00627128,0.00046396,0.00028625,-0
 .00082321,0.00007036,-0.00008413,0.00000402,-0.00014571,0.00019917,0.0
 0017708,0.00008142,-0.00001125,-0.00000455,0.00050224,0.00029596,-0.00
 104896,-0.00063394,-0.00176452,0.00085943,-0.14261837,-0.04723074,0.30
 356716,0.01510149,0.00079784,0.02070587,-0.00235681,0.00079122,0.00235
 108,-0.00014852,-0.00036136,0.00044168,-0.00729085,-0.00037405,0.00224
 106,-0.00833791,-0.00009554,-0.03361223,-0.13398294,-0.00268814,-0.124
 42776,0.00011478,0.00003997,-0.00013300,0.00012977,0.00007555,0.000343
 72,0.00126995,-0.00039805,-0.00031541,0.00037452,0.00000732,0.00083666
 ,0.00013896,-0.00004956,-0.00012559,-0.00078535,0.00108710,-0.00156428
 ,0.00106473,-0.00004074,0.00102395,0.13470819,-0.00093433,0.00699537,-
 0.00252532,0.00169381,0.01432752,-0.00139272,-0.00021870,-0.00021072,-
 0.00078460,-0.00039140,0.00084010,0.00001322,0.00158621,0.00326693,0.0
 0139425,-0.00278510,-0.04599156,-0.00411591,0.00016043,-0.00004957,-0.
 00003312,0.00131991,-0.00023625,0.00288759,-0.00051125,-0.00910451,0.0
 0053966,-0.00115468,-0.00009405,-0.00170216,-0.00019846,0.00004817,0.0
 0001864,0.00010810,0.00001438,-0.00000534,0.00011701,-0.00033561,-0.00
 019882,0.00120846,0.03052980,-0.01773879,-0.00069127,-0.02322961,0.004
 79120,-0.00018499,-0.00135863,0.00046887,-0.00026071,0.00052189,0.0004
 7451,-0.00024472,0.00072865,0.00313830,0.00016009,0.00447734,-0.122141
 16,-0.00460291,-0.31212093,-0.00003993,0.00007974,-0.00000260,-0.00020
 407,-0.00019075,-0.00044508,0.00058548,0.00025153,0.00122528,-0.000578
 03,-0.00015012,-0.00132225,-0.00010183,0.00001613,-0.00001462,0.000096
 81,-0.00014771,0.00004629,-0.00098561,0.00006106,0.00060266,0.13223425
 ,0.00590464,0.33089163\\0.00002991,-0.00002922,0.00000725,0.00001306,0
 .00004469,-0.00000219,-0.00002124,0.00002369,0.00002312,-0.00001606,-0
 .00000445,-0.00000953,0.00007212,-0.00003004,0.00001809,0.00002678,0.0
 0001875,-0.00002601,-0.00004757,0.00002754,0.00003920,-0.00001164,-0.0
 0005207,0.00001901,-0.00000575,-0.00001033,0.00000653,-0.00000786,-0.0
 0000729,0.00000219,0.00000361,-0.00000681,-0.00000338,0.00000995,-0.00
 000801,-0.00004239,-0.00004662,0.00003255,-0.00002575,0.00000131,0.000
 00100,-0.00000611\\\@


 ASKING FOR EFFICIENCY AND ADAPTABILITY IN THE SAME PROGRAM IS LIKE
 ASKING FOR A BEAUTIFUL AND MODEST WIFE ...
 WE'LL PROBABLY HAVE TO SETTLE FOR ONE OR THE OTHER.

             -- THE PSYCHOLOGY OF COMPUTER PROGRAMMING
                GERALD M. WEINBERG
 Job cpu time:       0 days  0 hours  0 minutes 19.2 seconds.
 Elapsed time:       0 days  0 hours  0 minutes 38.1 seconds.
 File lengths (MBytes):  RWF=     93 Int=      0 D2E=      0 Chk=      3 Scr=      2
 Normal termination of Gaussian 16 at Tue Oct 27 11:26:06 2020.
