 Entering Gaussian System, Link 0=g16
 Input=benzen20.com
 Output=benzen20.log
 Initial command:
 /usr/local/packages/gaussian/g16/l1.exe "/scratch/Gau-33668.inp" -scrdir="/scratch/"
 Entering Link 1 = /usr/local/packages/gaussian/g16/l1.exe PID=     33669.
  
 Copyright (c) 1988,1990,1992,1993,1995,1998,2003,2009,2016,
            Gaussian, Inc.  All Rights Reserved.
  
 This is part of the Gaussian(R) 16 program.  It is based on
 the Gaussian(R) 09 system (copyright 2009, Gaussian, Inc.),
 the Gaussian(R) 03 system (copyright 2003, Gaussian, Inc.),
 the Gaussian(R) 98 system (copyright 1998, Gaussian, Inc.),
 the Gaussian(R) 94 system (copyright 1995, Gaussian, Inc.),
 the Gaussian 92(TM) system (copyright 1992, Gaussian, Inc.),
 the Gaussian 90(TM) system (copyright 1990, Gaussian, Inc.),
 the Gaussian 88(TM) system (copyright 1988, Gaussian, Inc.),
 the Gaussian 86(TM) system (copyright 1986, Carnegie Mellon
 University), and the Gaussian 82(TM) system (copyright 1983,
 Carnegie Mellon University). Gaussian is a federally registered
 trademark of Gaussian, Inc.
  
 This software contains proprietary and confidential information,
 including trade secrets, belonging to Gaussian, Inc.
  
 This software is provided under written license and may be
 used, copied, transmitted, or stored only in accord with that
 written license.
  
 The following legend is applicable only to US Government
 contracts under FAR:
  
                    RESTRICTED RIGHTS LEGEND
  
 Use, reproduction and disclosure by the US Government is
 subject to restrictions as set forth in subparagraphs (a)
 and (c) of the Commercial Computer Software - Restricted
 Rights clause in FAR 52.227-19.
  
 Gaussian, Inc.
 340 Quinnipiac St., Bldg. 40, Wallingford CT 06492
  
  
 ---------------------------------------------------------------
 Warning -- This program may not be used in any manner that
 competes with the business of Gaussian, Inc. or will provide
 assistance to any competitor of Gaussian, Inc.  The licensee
 of this program is prohibited from giving any competitor of
 Gaussian, Inc. access to this program.  By using this program,
 the user acknowledges that Gaussian, Inc. is engaged in the
 business of creating and licensing software in the field of
 computational chemistry and represents and warrants to the
 licensee that it is not a competitor of Gaussian, Inc. and that
 it will not use this program in any manner prohibited above.
 ---------------------------------------------------------------
  

 Cite this work as:
 Gaussian 16, Revision A.03,
 M. J. Frisch, G. W. Trucks, H. B. Schlegel, G. E. Scuseria, 
 M. A. Robb, J. R. Cheeseman, G. Scalmani, V. Barone, 
 G. A. Petersson, H. Nakatsuji, X. Li, M. Caricato, A. V. Marenich, 
 J. Bloino, B. G. Janesko, R. Gomperts, B. Mennucci, H. P. Hratchian, 
 J. V. Ortiz, A. F. Izmaylov, J. L. Sonnenberg, D. Williams-Young, 
 F. Ding, F. Lipparini, F. Egidi, J. Goings, B. Peng, A. Petrone, 
 T. Henderson, D. Ranasinghe, V. G. Zakrzewski, J. Gao, N. Rega, 
 G. Zheng, W. Liang, M. Hada, M. Ehara, K. Toyota, R. Fukuda, 
 J. Hasegawa, M. Ishida, T. Nakajima, Y. Honda, O. Kitao, H. Nakai, 
 T. Vreven, K. Throssell, J. A. Montgomery, Jr., J. E. Peralta, 
 F. Ogliaro, M. J. Bearpark, J. J. Heyd, E. N. Brothers, K. N. Kudin, 
 V. N. Staroverov, T. A. Keith, R. Kobayashi, J. Normand, 
 K. Raghavachari, A. P. Rendell, J. C. Burant, S. S. Iyengar, 
 J. Tomasi, M. Cossi, J. M. Millam, M. Klene, C. Adamo, R. Cammi, 
 J. W. Ochterski, R. L. Martin, K. Morokuma, O. Farkas, 
 J. B. Foresman, and D. J. Fox, Gaussian, Inc., Wallingford CT, 2016.
 
 ******************************************
 Gaussian 16:  ES64L-G16RevA.03 25-Dec-2016
                29-Oct-2020 
 ******************************************
 --------------------------------
 # RHF/6-31G(d) Freq Pop=full Opt
 --------------------------------
 1/18=20,19=15,38=1/1,3;
 2/9=110,12=2,17=6,18=5,40=1/2;
 3/5=1,6=6,7=1,11=1,25=1,30=1,71=1,116=1/1,2,3;
 4//1;
 5/5=2,38=5/2;
 6/7=3,28=1/1;
 7//1,2,3,16;
 1/18=20,19=15/3(2);
 2/9=110/2;
 99//99;
 2/9=110/2;
 3/5=1,6=6,7=1,11=1,25=1,30=1,71=1,116=1/1,2,3;
 4/5=5,16=3,69=1/1;
 5/5=2,38=5/2;
 7//1,2,3,16;
 1/18=20,19=15/3(-5);
 2/9=110/2;
 6/7=3,19=2,28=1/1;
 99/9=1/99;
 --------
 Benzen20
 --------
 Symbolic Z-matrix:
 Charge =  0 Multiplicity = 1
 C                     0.6821    0.14248  -1.2194 
 C                    -0.7167    0.16385  -1.23257 
 C                    -1.4282    0.12921  -0.02847 
 C                    -0.74089   0.0732    1.1888 
 C                     0.65791   0.0517    1.20197 
 H                     0.30437   3.10272   0.28193 
 H                    -0.29216   3.129    -0.09836 
 H                     2.45154   0.06998   0.00806 
 H                     1.23253   0.16952  -2.15089 
 H                    -1.24841   0.20746  -2.17426 
 H                    -2.51033   0.14602  -0.03865 
 H                    -1.2913    0.04664   2.12031 
 H                     1.18963   0.00853   2.14367 
 
 Add virtual bond connecting atoms H8         and C1         Dist= 4.07D+00.
 Add virtual bond connecting atoms H8         and C5         Dist= 4.07D+00.
 Add virtual bond connecting atoms H6         and C1         Dist= 6.31D+00.
 Add virtual bond connecting atoms H6         and C4         Dist= 6.29D+00.
 Add virtual bond connecting atoms H6         and C5         Dist= 6.06D+00.
 Add virtual bond connecting atoms H7         and C1         Dist= 6.30D+00.
 Add virtual bond connecting atoms H7         and C2         Dist= 6.05D+00.

 GradGradGradGradGradGradGradGradGradGradGradGradGradGradGradGradGradGrad
 Berny optimization.
 Initialization pass.
                           ----------------------------
                           !    Initial Parameters    !
                           ! (Angstroms and Degrees)  !
 --------------------------                            --------------------------
 ! Name  Definition              Value          Derivative Info.                !
 --------------------------------------------------------------------------------
 ! R1    R(1,2)                  1.399          estimate D2E/DX2                !
 ! R2    R(1,6)                  3.3406         estimate D2E/DX2                !
 ! R3    R(1,7)                  3.3355         estimate D2E/DX2                !
 ! R4    R(1,8)                  2.1547         estimate D2E/DX2                !
 ! R5    R(1,9)                  1.0823         estimate D2E/DX2                !
 ! R6    R(2,3)                  1.399          estimate D2E/DX2                !
 ! R7    R(2,7)                  3.2029         estimate D2E/DX2                !
 ! R8    R(2,10)                 1.0823         estimate D2E/DX2                !
 ! R9    R(3,4)                  1.399          estimate D2E/DX2                !
 ! R10   R(3,11)                 1.0823         estimate D2E/DX2                !
 ! R11   R(4,5)                  1.399          estimate D2E/DX2                !
 ! R12   R(4,6)                  3.3306         estimate D2E/DX2                !
 ! R13   R(4,12)                 1.0823         estimate D2E/DX2                !
 ! R14   R(5,6)                  3.2063         estimate D2E/DX2                !
 ! R15   R(5,8)                  2.1547         estimate D2E/DX2                !
 ! R16   R(5,13)                 1.0823         estimate D2E/DX2                !
 ! R17   R(6,7)                  0.7079         estimate D2E/DX2                !
 ! A1    A(2,1,6)               82.9718         estimate D2E/DX2                !
 ! A2    A(2,1,8)              145.7857         estimate D2E/DX2                !
 ! A3    A(2,1,9)              119.9998         estimate D2E/DX2                !
 ! A4    A(6,1,8)               82.3372         estimate D2E/DX2                !
 ! A5    A(6,1,9)              114.9709         estimate D2E/DX2                !
 ! A6    A(7,1,8)               94.5041         estimate D2E/DX2                !
 ! A7    A(7,1,9)              114.5472         estimate D2E/DX2                !
 ! A8    A(8,1,9)               94.2145         estimate D2E/DX2                !
 ! A9    A(1,2,3)              119.9997         estimate D2E/DX2                !
 ! A10   A(1,2,10)             120.0003         estimate D2E/DX2                !
 ! A11   A(3,2,7)               77.6167         estimate D2E/DX2                !
 ! A12   A(3,2,10)             119.9999         estimate D2E/DX2                !
 ! A13   A(7,2,10)             109.629          estimate D2E/DX2                !
 ! A14   A(2,3,4)              119.9997         estimate D2E/DX2                !
 ! A15   A(2,3,11)             120.0            estimate D2E/DX2                !
 ! A16   A(4,3,11)             120.0003         estimate D2E/DX2                !
 ! A17   A(3,4,5)              120.0005         estimate D2E/DX2                !
 ! A18   A(3,4,6)               83.157          estimate D2E/DX2                !
 ! A19   A(3,4,12)             119.9998         estimate D2E/DX2                !
 ! A20   A(5,4,12)             119.9997         estimate D2E/DX2                !
 ! A21   A(6,4,12)             114.5992         estimate D2E/DX2                !
 ! A22   A(4,5,8)              145.785          estimate D2E/DX2                !
 ! A23   A(4,5,13)             120.0003         estimate D2E/DX2                !
 ! A24   A(6,5,8)               85.6827         estimate D2E/DX2                !
 ! A25   A(6,5,13)             109.9865         estimate D2E/DX2                !
 ! A26   A(8,5,13)              94.2147         estimate D2E/DX2                !
 ! A27   A(1,6,4)               49.5957         estimate D2E/DX2                !
 ! A28   A(1,6,5)               43.3864         estimate D2E/DX2                !
 ! A29   A(4,6,7)               85.1576         estimate D2E/DX2                !
 ! A30   A(5,6,7)              106.4028         estimate D2E/DX2                !
 ! A31   A(2,7,6)              105.5183         estimate D2E/DX2                !
 ! A32   A(1,8,5)               68.4293         estimate D2E/DX2                !
 ! D1    D(6,1,2,3)            -65.1518         estimate D2E/DX2                !
 ! D2    D(6,1,2,10)           114.8313         estimate D2E/DX2                !
 ! D3    D(8,1,2,3)             -0.0019         estimate D2E/DX2                !
 ! D4    D(8,1,2,10)           179.9812         estimate D2E/DX2                !
 ! D5    D(9,1,2,3)           -179.9849         estimate D2E/DX2                !
 ! D6    D(9,1,2,10)            -0.0018         estimate D2E/DX2                !
 ! D7    D(2,1,6,4)             60.1097         estimate D2E/DX2                !
 ! D8    D(2,1,6,5)             93.2429         estimate D2E/DX2                !
 ! D9    D(8,1,6,4)            -88.9046         estimate D2E/DX2                !
 ! D10   D(8,1,6,5)            -55.7713         estimate D2E/DX2                !
 ! D11   D(9,1,6,4)            179.9985         estimate D2E/DX2                !
 ! D12   D(9,1,6,5)           -146.8683         estimate D2E/DX2                !
 ! D13   D(2,1,8,5)              0.0062         estimate D2E/DX2                !
 ! D14   D(6,1,8,5)             65.3334         estimate D2E/DX2                !
 ! D15   D(7,1,8,5)             64.9253         estimate D2E/DX2                !
 ! D16   D(9,1,8,5)            179.9914         estimate D2E/DX2                !
 ! D17   D(1,2,3,4)             -0.0004         estimate D2E/DX2                !
 ! D18   D(1,2,3,11)           179.9831         estimate D2E/DX2                !
 ! D19   D(7,2,3,4)            -74.297          estimate D2E/DX2                !
 ! D20   D(7,2,3,11)           105.6865         estimate D2E/DX2                !
 ! D21   D(10,2,3,4)          -179.9835         estimate D2E/DX2                !
 ! D22   D(10,2,3,11)            0.0            estimate D2E/DX2                !
 ! D23   D(3,2,7,6)             91.3799         estimate D2E/DX2                !
 ! D24   D(10,2,7,6)          -150.8979         estimate D2E/DX2                !
 ! D25   D(2,3,4,5)             -0.0056         estimate D2E/DX2                !
 ! D26   D(2,3,4,6)             65.4768         estimate D2E/DX2                !
 ! D27   D(2,3,4,12)           179.9853         estimate D2E/DX2                !
 ! D28   D(11,3,4,5)          -179.9892         estimate D2E/DX2                !
 ! D29   D(11,3,4,6)          -114.5067         estimate D2E/DX2                !
 ! D30   D(11,3,4,12)            0.0018         estimate D2E/DX2                !
 ! D31   D(3,4,5,8)              0.0186         estimate D2E/DX2                !
 ! D32   D(3,4,5,13)           179.9898         estimate D2E/DX2                !
 ! D33   D(12,4,5,8)          -179.9724         estimate D2E/DX2                !
 ! D34   D(12,4,5,13)           -0.0011         estimate D2E/DX2                !
 ! D35   D(3,4,6,1)            -60.0705         estimate D2E/DX2                !
 ! D36   D(3,4,6,7)             25.5061         estimate D2E/DX2                !
 ! D37   D(12,4,6,1)          -179.9984         estimate D2E/DX2                !
 ! D38   D(12,4,6,7)           -94.4218         estimate D2E/DX2                !
 ! D39   D(8,5,6,1)             55.2601         estimate D2E/DX2                !
 ! D40   D(8,5,6,7)            116.3603         estimate D2E/DX2                !
 ! D41   D(13,5,6,1)           148.1816         estimate D2E/DX2                !
 ! D42   D(13,5,6,7)          -150.7181         estimate D2E/DX2                !
 ! D43   D(4,5,8,1)             -0.0154         estimate D2E/DX2                !
 ! D44   D(6,5,8,1)            -70.227          estimate D2E/DX2                !
 ! D45   D(13,5,8,1)          -179.9905         estimate D2E/DX2                !
 ! D46   D(4,6,7,2)            -37.2089         estimate D2E/DX2                !
 ! D47   D(5,6,7,2)            -24.6265         estimate D2E/DX2                !
 --------------------------------------------------------------------------------
 Trust Radius=3.00D-01 FncErr=1.00D-07 GrdErr=1.00D-07 EigMax=2.50D+02 EigMin=1.00D-04
 Number of steps in this run=    100 maximum allowed number of steps=    100.
 GradGradGradGradGradGradGradGradGradGradGradGradGradGradGradGradGradGrad

                          Input orientation:                          
 ---------------------------------------------------------------------
 Center     Atomic      Atomic             Coordinates (Angstroms)
 Number     Number       Type             X           Y           Z
 ---------------------------------------------------------------------
      1          6           0        0.682098    0.142478   -1.219395
      2          6           0       -0.716702    0.163850   -1.232574
      3          6           0       -1.428199    0.129213   -0.028471
      4          6           0       -0.740886    0.073196    1.188795
      5          6           0        0.657912    0.051697    1.201968
      6          1           0        0.304366    3.102722    0.281925
      7          1           0       -0.292162    3.129004   -0.098355
      8          1           0        2.451543    0.069976    0.008064
      9          1           0        1.232525    0.169520   -2.150893
     10          1           0       -1.248409    0.207455   -2.174260
     11          1           0       -2.510326    0.146022   -0.038651
     12          1           0       -1.291304    0.046640    2.120313
     13          1           0        1.189626    0.008528    2.143671
 ---------------------------------------------------------------------
                    Distance matrix (angstroms):
                    1          2          3          4          5
     1  C    0.000000
     2  C    1.399025   0.000000
     3  C    2.423186   1.399032   0.000000
     4  C    2.798046   2.423186   1.399026   0.000000
     5  C    2.423185   2.798059   2.423190   1.399025   0.000000
     6  H    3.340612   3.460239   3.455414   3.330614   3.206279
     7  H    3.335454   3.202940   3.208459   3.346053   3.473226
     8  H    2.154727   3.403788   3.880366   3.403783   2.154728
     9  H    1.082308   2.154722   3.403785   3.880354   3.403783
    10  H    2.154727   1.082306   2.154729   3.403784   3.880365
    11  H    3.403783   2.154729   1.082305   2.154726   3.403787
    12  H    3.880354   3.403786   2.154723   1.082308   2.154722
    13  H    3.403783   3.880366   3.403788   2.154727   1.082307
                    6          7          8          9         10
     6  H    0.000000
     7  H    0.707919   0.000000
     8  H    3.725979   4.110583   0.000000
     9  H    3.922213   3.911026   2.481332   0.000000
    10  H    4.102015   3.709345   4.297800   2.481334   0.000000
    11  H    4.094794   3.717795   4.962672   4.297796   2.481337
    12  H    3.907105   3.927052   4.297795   4.962662   4.297797
    13  H    3.718040   4.118221   2.481336   4.297795   4.962672
                   11         12         13
    11  H    0.000000
    12  H    2.481334   0.000000
    13  H    4.297799   2.481333   0.000000
 Stoichiometry    C5H8
 Framework group  C1[X(C5H8)]
 Deg. of freedom    33
 Full point group                 C1      NOp   1
 Largest Abelian subgroup         C1      NOp   1
 Largest concise Abelian subgroup C1      NOp   1
                         Standard orientation:                         
 ---------------------------------------------------------------------
 Center     Atomic      Atomic             Coordinates (Angstroms)
 Number     Number       Type             X           Y           Z
 ---------------------------------------------------------------------
      1          6           0       -1.203673    0.920545   -0.210104
      2          6           0       -1.215010   -0.476327   -0.133335
      3          6           0       -0.009117   -1.184518   -0.093574
      4          6           0        1.208096   -0.495827   -0.130590
      5          6           0        1.219432    0.901037   -0.207485
      6          1           0        0.184114    0.666315    2.817948
      7          1           0       -0.195762    0.070013    2.853548
      8          1           0        0.022307    2.689877   -0.306461
      9          1           0       -2.136564    1.468424   -0.240618
     10          1           0       -2.156665   -1.009089   -0.104430
     11          1           0       -0.017883   -2.265142   -0.033909
     12          1           0        2.140990   -1.043678   -0.099590
     13          1           0        2.161088    1.433823   -0.235955
 ---------------------------------------------------------------------
 Rotational constants (GHZ):           6.3694757           4.7309279           3.3509368
 Standard basis: 6-31G(d) (6D, 7F)
 There are    91 symmetry adapted cartesian basis functions of A   symmetry.
 There are    91 symmetry adapted basis functions of A   symmetry.
    91 basis functions,   172 primitive gaussians,    91 cartesian basis functions
    19 alpha electrons       19 beta electrons
       nuclear repulsion energy       156.5911116013 Hartrees.
 NAtoms=   13 NActive=   13 NUniq=   13 SFac= 1.00D+00 NAtFMM=   60 NAOKFM=F Big=F
 Integral buffers will be    131072 words long.
 Raffenetti 1 integral format.
 Two-electron integral symmetry is turned on.
 One-electron integrals computed using PRISM.
 NBasis=    91 RedAO= T EigKep=  2.25D-03  NBF=    91
 NBsUse=    91 1.00D-06 EigRej= -1.00D+00 NBFU=    91
 ExpMin= 1.61D-01 ExpMax= 3.05D+03 ExpMxC= 4.57D+02 IAcc=3 IRadAn=         5 AccDes= 0.00D+00
 Harris functional with IExCor=  205 and IRadAn=       5 diagonalized for initial guess.
 HarFok:  IExCor=  205 AccDes= 0.00D+00 IRadAn=         5 IDoV= 1 UseB2=F ITyADJ=14
 ICtDFT=  3500011 ScaDFX=  1.000000  1.000000  1.000000  1.000000
 FoFCou: FMM=F IPFlag=           0 FMFlag=      100000 FMFlg1=           0
         NFxFlg=           0 DoJE=T BraDBF=F KetDBF=T FulRan=T
         wScrn=  0.000000 ICntrl=       500 IOpCl=  0 I1Cent=   200000004 NGrid=           0
         NMat0=    1 NMatS0=      1 NMatT0=    0 NMatD0=    1 NMtDS0=    0 NMtDT0=    0
 Petite list used in FoFCou.
 Keep R1 ints in memory in canonical form, NReq=9637955.
 Requested convergence on RMS density matrix=1.00D-08 within 128 cycles.
 Requested convergence on MAX density matrix=1.00D-06.
 Requested convergence on             energy=1.00D-06.
 No special actions if energy rises.
 SCF Done:  E(RHF) =  -193.534237864     A.U. after   23 cycles
            NFock= 23  Conv=0.48D-08     -V/T= 2.0046

 **********************************************************************

            Population analysis using the SCF density.

 **********************************************************************

 Orbital symmetries:
       Occupied  (A) (A) (A) (A) (A) (A) (A) (A) (A) (A) (A) (A)
                 (A) (A) (A) (A) (A) (A) (A)
       Virtual   (A) (A) (A) (A) (A) (A) (A) (A) (A) (A) (A) (A)
                 (A) (A) (A) (A) (A) (A) (A) (A) (A) (A) (A) (A)
                 (A) (A) (A) (A) (A) (A) (A) (A) (A) (A) (A) (A)
                 (A) (A) (A) (A) (A) (A) (A) (A) (A) (A) (A) (A)
                 (A) (A) (A) (A) (A) (A) (A) (A) (A) (A) (A) (A)
                 (A) (A) (A) (A) (A) (A) (A) (A) (A) (A) (A) (A)
 The electronic state is 1-A.
 Alpha  occ. eigenvalues --  -11.29581 -11.29536 -11.26417 -11.26407 -11.18447
 Alpha  occ. eigenvalues --   -1.10007  -0.99925  -0.89521  -0.77681  -0.69472
 Alpha  occ. eigenvalues --   -0.67550  -0.59564  -0.58068  -0.54430  -0.51286
 Alpha  occ. eigenvalues --   -0.46669  -0.41390  -0.35911  -0.24500
 Alpha virt. eigenvalues --    0.01127   0.07123   0.14414   0.24412   0.26709
 Alpha virt. eigenvalues --    0.28125   0.28486   0.32669   0.33311   0.34684
 Alpha virt. eigenvalues --    0.47883   0.49470   0.57953   0.59045   0.67988
 Alpha virt. eigenvalues --    0.71077   0.77328   0.78849   0.82684   0.84346
 Alpha virt. eigenvalues --    0.85214   0.85603   0.90453   0.92041   0.93384
 Alpha virt. eigenvalues --    0.95007   0.96634   1.02665   1.10786   1.11239
 Alpha virt. eigenvalues --    1.12613   1.14977   1.16365   1.21080   1.22693
 Alpha virt. eigenvalues --    1.24189   1.29767   1.34907   1.42533   1.50858
 Alpha virt. eigenvalues --    1.58510   1.66077   1.69275   1.70470   1.75817
 Alpha virt. eigenvalues --    1.78543   1.97547   2.02632   2.04962   2.12537
 Alpha virt. eigenvalues --    2.16978   2.25288   2.26879   2.32685   2.45567
 Alpha virt. eigenvalues --    2.49426   2.49666   2.56684   2.59501   2.62766
 Alpha virt. eigenvalues --    2.88208   2.90063   2.93422   2.96400   3.02414
 Alpha virt. eigenvalues --    3.25619   3.46493   4.48084   4.48239   4.57746
 Alpha virt. eigenvalues --    4.70050   4.91921
     Molecular Orbital Coefficients:
                           1         2         3         4         5
                           O         O         O         O         O
     Eigenvalues --   -11.29581 -11.29536 -11.26417 -11.26407 -11.18447
   1 1   C  1S          0.04381   0.99472  -0.01846   0.00024   0.00016
   2        2S          0.00074   0.02612  -0.00051   0.00001  -0.00013
   3        2PX        -0.00008   0.00106   0.00007  -0.00000  -0.00002
   4        2PY         0.00006   0.00041   0.00025   0.00001   0.00003
   5        2PZ         0.00001  -0.00001  -0.00001   0.00001   0.00000
   6        3S          0.00146  -0.01060   0.00457   0.00022  -0.00079
   7        3PX         0.00192  -0.00170   0.00017  -0.00019   0.00002
   8        3PY        -0.00108   0.00192  -0.00193  -0.00021   0.00022
   9        3PZ         0.00004  -0.00012   0.00010   0.00000  -0.00002
  10        4XX        -0.00000  -0.00212  -0.00021  -0.00002   0.00006
  11        4YY        -0.00016  -0.00168  -0.00057   0.00003   0.00012
  12        4ZZ        -0.00025  -0.00172  -0.00003   0.00000  -0.00003
  13        4XY        -0.00002  -0.00042  -0.00009  -0.00001  -0.00002
  14        4XZ         0.00000   0.00002   0.00000   0.00000   0.00000
  15        4YZ        -0.00000  -0.00000   0.00003  -0.00000  -0.00001
  16 2   C  1S          0.00056   0.01795   0.99556   0.00015  -0.00734
  17        2S          0.00006   0.00013   0.02716  -0.00010  -0.00032
  18        2PX         0.00002  -0.00009  -0.00007  -0.00005  -0.00018
  19        2PY        -0.00007  -0.00004   0.00038   0.00001   0.00003
  20        2PZ         0.00000   0.00001  -0.00001   0.00000   0.00001
  21        3S         -0.00130   0.00437  -0.01366  -0.00091   0.00489
  22        3PX        -0.00100   0.00063  -0.00127  -0.00009   0.00191
  23        3PY        -0.00064   0.00229  -0.00117  -0.00020  -0.00017
  24        3PZ         0.00005  -0.00013   0.00004   0.00001  -0.00001
  25        4XX        -0.00001  -0.00027  -0.00154   0.00012  -0.00043
  26        4YY        -0.00001  -0.00017  -0.00139   0.00003  -0.00038
  27        4ZZ        -0.00001  -0.00016  -0.00227  -0.00001  -0.00009
  28        4XY        -0.00004  -0.00003  -0.00015  -0.00002   0.00017
  29        4XZ         0.00000   0.00000   0.00001   0.00000  -0.00001
  30        4YZ         0.00000   0.00000  -0.00006  -0.00000   0.00002
  31 3   C  1S         -0.00005  -0.00004   0.00684   0.00685   0.99555
  32        2S         -0.00017  -0.00014   0.00002   0.00001   0.02804
  33        2PX        -0.00010   0.00011   0.00009  -0.00009  -0.00000
  34        2PY        -0.00001  -0.00001  -0.00013  -0.00013   0.00043
  35        2PZ        -0.00000   0.00001   0.00002   0.00001  -0.00001
  36        3S          0.00043   0.00034   0.00423   0.00429  -0.01355
  37        3PX         0.00012  -0.00011  -0.00117   0.00118  -0.00003
  38        3PY         0.00024   0.00020   0.00159   0.00160  -0.00233
  39        3PZ        -0.00001  -0.00002  -0.00011  -0.00010   0.00010
  40        4XX         0.00001   0.00001  -0.00044  -0.00044  -0.00161
  41        4YY         0.00010   0.00010  -0.00029  -0.00029  -0.00190
  42        4ZZ        -0.00005  -0.00003  -0.00012  -0.00013  -0.00231
  43        4XY         0.00003  -0.00003   0.00006  -0.00005  -0.00000
  44        4XZ        -0.00000   0.00000  -0.00000   0.00000  -0.00000
  45        4YZ        -0.00001  -0.00001   0.00001   0.00001  -0.00003
  46 4   C  1S          0.01762  -0.00100  -0.00019   0.99556  -0.00736
  47        2S          0.00013   0.00006  -0.00011   0.02715  -0.00033
  48        2PX         0.00009  -0.00003   0.00005   0.00008   0.00018
  49        2PY        -0.00004  -0.00007   0.00001   0.00038   0.00003
  50        2PZ         0.00001   0.00001   0.00001  -0.00002   0.00000
  51        3S          0.00424  -0.00172  -0.00089  -0.01362   0.00494
  52        3PX        -0.00047   0.00104   0.00006   0.00125  -0.00194
  53        3PY         0.00225  -0.00086  -0.00022  -0.00118  -0.00014
  54        3PZ        -0.00013   0.00004   0.00000   0.00006  -0.00000
  55        4XX        -0.00026   0.00002   0.00012  -0.00154  -0.00044
  56        4YY        -0.00017   0.00001   0.00003  -0.00140  -0.00038
  57        4ZZ        -0.00015   0.00002  -0.00001  -0.00228  -0.00010
  58        4XY         0.00004   0.00004   0.00001   0.00015  -0.00017
  59        4XZ        -0.00000  -0.00000  -0.00000  -0.00001   0.00001
  60        4YZ         0.00000   0.00000  -0.00000  -0.00006   0.00002
  61 5   C  1S          0.99472  -0.04397   0.00025  -0.01814   0.00016
  62        2S          0.02609  -0.00156  -0.00000  -0.00050  -0.00013
  63        2PX        -0.00104   0.00018   0.00000  -0.00007   0.00002
  64        2PY         0.00043   0.00002   0.00001   0.00026   0.00003
  65        2PZ        -0.00000   0.00001  -0.00000  -0.00001  -0.00000
  66        3S         -0.01050   0.00240   0.00026   0.00455  -0.00076
  67        3PX         0.00155  -0.00208   0.00019  -0.00020  -0.00002
  68        3PY         0.00181  -0.00122  -0.00023  -0.00192   0.00022
  69        3PZ        -0.00014   0.00005   0.00002   0.00009  -0.00000
  70        4XX        -0.00208   0.00018  -0.00003  -0.00020   0.00006
  71        4YY        -0.00169  -0.00001   0.00002  -0.00057   0.00011
  72        4ZZ        -0.00173  -0.00010  -0.00001  -0.00003  -0.00004
  73        4XY         0.00043  -0.00002   0.00001   0.00008   0.00002
  74        4XZ        -0.00002   0.00000  -0.00000  -0.00000  -0.00000
  75        4YZ        -0.00000  -0.00001  -0.00000   0.00003  -0.00001
  76 6   H  1S         -0.00015  -0.00007  -0.00000  -0.00007  -0.00000
  77        2S          0.00050   0.00012  -0.00023   0.00011  -0.00022
  78 7   H  1S          0.00000  -0.00006  -0.00013  -0.00006  -0.00013
  79        2S         -0.00029   0.00007   0.00042   0.00007   0.00041
  80 8   H  1S          0.00008   0.00007  -0.00001  -0.00000   0.00000
  81        2S          0.00041   0.00038   0.00007   0.00007  -0.00001
  82 9   H  1S          0.00012  -0.00025  -0.00008  -0.00002   0.00001
  83        2S          0.00090   0.00080  -0.00003  -0.00005   0.00016
  84 10  H  1S         -0.00005   0.00001  -0.00019   0.00001  -0.00003
  85        2S         -0.00037   0.00024   0.00174   0.00013   0.00012
  86 11  H  1S         -0.00002  -0.00002  -0.00001  -0.00001  -0.00021
  87        2S          0.00018   0.00016   0.00020   0.00020   0.00140
  88 12  H  1S         -0.00000  -0.00005   0.00001  -0.00019  -0.00003
  89        2S          0.00020  -0.00039   0.00013   0.00173   0.00012
  90 13  H  1S         -0.00024   0.00014  -0.00002  -0.00008   0.00001
  91        2S          0.00088   0.00082  -0.00005  -0.00003   0.00016
                           6         7         8         9        10
                           O         O         O         O         O
     Eigenvalues --    -1.10007  -0.99925  -0.89521  -0.77681  -0.69472
   1 1   C  1S         -0.06934  -0.09762   0.10709  -0.09311  -0.04308
   2        2S          0.13557   0.19456  -0.21099   0.19026   0.08054
   3        2PX         0.00331  -0.03168   0.04875  -0.09124   0.01452
   4        2PY        -0.07364  -0.08887   0.02288   0.05641   0.06986
   5        2PZ         0.00408   0.00496  -0.00127  -0.00313  -0.00379
   6        3S          0.09798   0.15503  -0.20614   0.17614   0.10118
   7        3PX         0.00419  -0.00796   0.00789  -0.05457   0.00629
   8        3PY        -0.00902  -0.01231  -0.00430   0.04048   0.04248
   9        3PZ         0.00051   0.00065   0.00028  -0.00228  -0.00233
  10        4XX        -0.00156  -0.00229  -0.00403   0.00819   0.00649
  11        4YY         0.00965   0.01234  -0.00546   0.00036  -0.00337
  12        4ZZ        -0.00584  -0.00723   0.00797  -0.00631  -0.00376
  13        4XY        -0.00469  -0.00604   0.00642  -0.01114  -0.00988
  14        4XZ         0.00025   0.00032  -0.00034   0.00061   0.00055
  15        4YZ        -0.00100  -0.00126   0.00087  -0.00043  -0.00003
  16 2   C  1S         -0.11592  -0.12079  -0.00299   0.07177   0.06046
  17        2S          0.22617   0.23905   0.00574  -0.14971  -0.12413
  18        2PX         0.05662  -0.01936   0.09704  -0.01059   0.24722
  19        2PY         0.01265   0.05490  -0.16189   0.16510   0.05816
  20        2PZ        -0.00067  -0.00302   0.00892  -0.00907  -0.00289
  21        3S          0.14622   0.17934   0.01867  -0.12518  -0.10859
  22        3PX        -0.00003  -0.01798   0.03394   0.03128   0.12487
  23        3PY        -0.00126   0.00131  -0.03288   0.06566   0.03947
  24        3PZ         0.00018  -0.00002   0.00186  -0.00364  -0.00199
  25        4XX         0.00959   0.00452   0.01084  -0.01389  -0.01142
  26        4YY         0.00698   0.01203  -0.00988   0.00471   0.00034
  27        4ZZ        -0.01111  -0.01055  -0.00045   0.00571   0.00536
  28        4XY        -0.00215   0.00252  -0.00732  -0.00296  -0.01672
  29        4XZ         0.00013  -0.00013   0.00041   0.00015   0.00091
  30        4YZ        -0.00115  -0.00143   0.00059   0.00007   0.00032
  31 3   C  1S         -0.11843  -0.00012  -0.12919   0.00007  -0.06826
  32        2S          0.21963   0.00021   0.24605  -0.00012   0.13427
  33        2PX         0.00051  -0.11694   0.00004   0.20329   0.00021
  34        2PY         0.06812   0.00095  -0.01410  -0.00146   0.03293
  35        2PZ        -0.00381  -0.00016   0.00068   0.00024  -0.00166
  36        3S          0.15369   0.00009   0.19360  -0.00004   0.09224
  37        3PX         0.00011  -0.01650  -0.00029   0.05031  -0.00049
  38        3PY         0.01179   0.00009  -0.03223  -0.00031  -0.04137
  39        3PZ        -0.00055  -0.00002   0.00179   0.00003   0.00236
  40        4XX         0.01140  -0.00016   0.00728   0.00015  -0.00650
  41        4YY         0.00692   0.00017   0.00817  -0.00016   0.01127
  42        4ZZ        -0.01006  -0.00002  -0.00868   0.00001  -0.00421
  43        4XY        -0.00004  -0.01208   0.00003   0.01129   0.00016
  44        4XZ         0.00002   0.00067   0.00001  -0.00062  -0.00001
  45        4YZ        -0.00109  -0.00002  -0.00108   0.00002  -0.00098
  46 4   C  1S         -0.11590   0.12071  -0.00330  -0.07190   0.06053
  47        2S          0.22621  -0.23896   0.00637   0.15000  -0.12428
  48        2PX        -0.05639  -0.02038  -0.09957  -0.01330  -0.24602
  49        2PY         0.01369  -0.05489  -0.16025  -0.16441   0.06179
  50        2PZ        -0.00081   0.00302   0.00872   0.00901  -0.00338
  51        3S          0.14582  -0.17883   0.01933   0.12524  -0.10856
  52        3PX         0.00014  -0.01807  -0.03438   0.03030  -0.12413
  53        3PY        -0.00131  -0.00102  -0.03228  -0.06588   0.04114
  54        3PZ         0.00001   0.00014   0.00175   0.00359  -0.00218
  55        4XX         0.00965  -0.00443   0.01107   0.01380  -0.01093
  56        4YY         0.00694  -0.01213  -0.01006  -0.00461  -0.00015
  57        4ZZ        -0.01109   0.01054  -0.00046  -0.00571   0.00537
  58        4XY         0.00210   0.00238   0.00691  -0.00332   0.01690
  59        4XZ        -0.00009  -0.00014  -0.00036   0.00020  -0.00094
  60        4YZ        -0.00115   0.00145   0.00063  -0.00007   0.00037
  61 5   C  1S         -0.06944   0.09784   0.10702   0.09301  -0.04303
  62        2S          0.13575  -0.19497  -0.21084  -0.19006   0.08042
  63        2PX        -0.00446  -0.03037  -0.04846  -0.09240  -0.01330
  64        2PY        -0.07364   0.08944   0.02339  -0.05540   0.07047
  65        2PZ         0.00404  -0.00494  -0.00129   0.00299  -0.00376
  66        3S          0.09834  -0.15567  -0.20624  -0.17615   0.10127
  67        3PX        -0.00439  -0.00779  -0.00802  -0.05537  -0.00563
  68        3PY        -0.00904   0.01252  -0.00423  -0.03974   0.04270
  69        3PZ         0.00057  -0.00078   0.00023   0.00213  -0.00232
  70        4XX        -0.00143   0.00212  -0.00422  -0.00852   0.00678
  71        4YY         0.00952  -0.01217  -0.00524  -0.00002  -0.00367
  72        4ZZ        -0.00585   0.00727   0.00798   0.00631  -0.00375
  73        4XY         0.00491  -0.00633  -0.00645  -0.01100   0.00970
  74        4XZ        -0.00026   0.00034   0.00034   0.00059  -0.00053
  75        4YZ        -0.00098   0.00124   0.00083   0.00039  -0.00000
  76 6   H  1S          0.00213  -0.00030  -0.00125  -0.00027   0.00548
  77        2S          0.00063   0.00018  -0.00214  -0.00070   0.00510
  78 7   H  1S          0.00249   0.00035  -0.00044  -0.00027   0.00527
  79        2S         -0.00016  -0.00020   0.00072   0.00030   0.00274
  80 8   H  1S          0.00748  -0.00002  -0.02267  -0.00001   0.03766
  81        2S          0.00539  -0.00002  -0.02106  -0.00001   0.04840
  82 9   H  1S          0.02977   0.06122  -0.09548   0.13579   0.05651
  83        2S          0.00511   0.01353  -0.03204   0.05340   0.03017
  84 10  H  1S          0.05451   0.08146  -0.00010  -0.10009  -0.19621
  85        2S          0.00629   0.01519   0.00308  -0.03387  -0.10398
  86 11  H  1S          0.04798   0.00007   0.10038  -0.00014   0.04599
  87        2S          0.00819   0.00000   0.02609  -0.00006   0.00731
  88 12  H  1S          0.05448  -0.08138   0.00017   0.10004  -0.19601
  89        2S          0.00626  -0.01515   0.00316   0.03382  -0.10381
  90 13  H  1S          0.02984  -0.06141  -0.09554  -0.13597   0.05661
  91        2S          0.00514  -0.01358  -0.03206  -0.05349   0.03027
                          11        12        13        14        15
                           O         O         O         O         O
     Eigenvalues --    -0.67550  -0.59564  -0.58068  -0.54430  -0.51286
   1 1   C  1S          0.02459   0.01381   0.00238   0.01730   0.02189
   2        2S         -0.04677  -0.03242  -0.00648  -0.03249  -0.04723
   3        2PX         0.14177  -0.14405   0.00220   0.00837  -0.08869
   4        2PY        -0.18941   0.25299   0.00447  -0.10002   0.18641
   5        2PZ         0.01055  -0.01409   0.02692   0.00567  -0.01007
   6        3S         -0.06950  -0.02264  -0.00132  -0.06065  -0.05795
   7        3PX         0.05425  -0.05908   0.00210   0.01685  -0.04231
   8        3PY        -0.07257   0.09739   0.00239  -0.04572   0.08211
   9        3PZ         0.00416  -0.00545   0.01905   0.00265  -0.00437
  10        4XX        -0.01224   0.01699  -0.00018  -0.00469   0.00934
  11        4YY         0.00654  -0.01024  -0.00076   0.00187  -0.00384
  12        4ZZ         0.00247  -0.00026   0.00115   0.00119   0.00023
  13        4XY         0.00640  -0.00669   0.00045   0.01349  -0.00829
  14        4XZ        -0.00035   0.00037   0.00050  -0.00074   0.00046
  15        4YZ        -0.00028   0.00066  -0.00156  -0.00005   0.00026
  16 2   C  1S         -0.02985   0.01727   0.00167   0.01006  -0.01656
  17        2S          0.06372  -0.03848  -0.00450  -0.02463   0.03485
  18        2PX         0.09951  -0.12292  -0.00784  -0.31724   0.08549
  19        2PY         0.12325  -0.23843  -0.00275   0.11068  -0.20015
  20        2PZ        -0.00662   0.01297   0.02961  -0.00618   0.01130
  21        3S          0.04051  -0.02321  -0.00087  -0.02260   0.04675
  22        3PX         0.03079  -0.06142  -0.00473  -0.15846   0.02148
  23        3PY         0.03475  -0.08333  -0.00107   0.04620  -0.08096
  24        3PZ        -0.00177   0.00448   0.01710  -0.00261   0.00471
  25        4XX        -0.00201   0.01602  -0.00003   0.00797   0.01868
  26        4YY         0.00025  -0.01018  -0.00033  -0.00038  -0.01661
  27        4ZZ        -0.00217   0.00022   0.00096  -0.00070  -0.00105
  28        4XY         0.00322   0.00316   0.00069   0.01979  -0.00169
  29        4XZ        -0.00017  -0.00016   0.00145  -0.00107   0.00012
  30        4YZ        -0.00015   0.00065   0.00097  -0.00001   0.00100
  31 3   C  1S          0.04534  -0.00005   0.00295  -0.00002  -0.00338
  32        2S         -0.08612   0.00012  -0.00675   0.00007   0.01427
  33        2PX         0.00157  -0.03090   0.00011   0.34945   0.00276
  34        2PY         0.22984  -0.00017  -0.00432  -0.00256   0.35747
  35        2PZ        -0.01256  -0.00001   0.03018   0.00052  -0.01944
  36        3S         -0.10973   0.00004  -0.00292  -0.00006  -0.00687
  37        3PX         0.00086  -0.01664  -0.00008   0.11936   0.00165
  38        3PY         0.10121  -0.00013  -0.00131  -0.00085   0.18425
  39        3PZ        -0.00546  -0.00003   0.01816   0.00016  -0.00990
  40        4XX         0.00321   0.00010  -0.00037   0.00030   0.02030
  41        4YY        -0.01148  -0.00008  -0.00011  -0.00030  -0.03154
  42        4ZZ         0.00256   0.00000   0.00099   0.00000   0.00099
  43        4XY        -0.00015   0.00838   0.00000   0.02148  -0.00049
  44        4XZ         0.00001  -0.00046  -0.00005  -0.00119   0.00005
  45        4YZ         0.00090   0.00001   0.00180   0.00004   0.00208
  46 4   C  1S         -0.02974  -0.01708   0.00139  -0.01007  -0.01662
  47        2S          0.06350   0.03809  -0.00444   0.02466   0.03503
  48        2PX        -0.09749  -0.11905   0.00776  -0.31921  -0.08858
  49        2PY         0.12558   0.24047  -0.00314  -0.10572  -0.19828
  50        2PZ        -0.00690  -0.01330   0.02919   0.00565   0.01112
  51        3S          0.04001   0.02273   0.00217   0.02269   0.04658
  52        3PX        -0.03016  -0.06014   0.00384  -0.15933  -0.02253
  53        3PY         0.03550   0.08420  -0.00024  -0.04364  -0.08026
  54        3PZ        -0.00185  -0.00464   0.01773   0.00236   0.00456
  55        4XX        -0.00215  -0.01597  -0.00008  -0.00739   0.01872
  56        4YY         0.00038   0.01012  -0.00033  -0.00020  -0.01664
  57        4ZZ        -0.00216  -0.00020   0.00076   0.00070  -0.00104
  58        4XY        -0.00318   0.00366  -0.00072   0.01991   0.00100
  59        4XZ         0.00018  -0.00021  -0.00145  -0.00109  -0.00004
  60        4YZ        -0.00017  -0.00067   0.00107   0.00008   0.00102
  61 5   C  1S          0.02439  -0.01398   0.00261  -0.01725   0.02193
  62        2S         -0.04633   0.03277  -0.00647   0.03238  -0.04729
  63        2PX        -0.14497  -0.14815  -0.00275   0.00984   0.09147
  64        2PY        -0.18752  -0.25052   0.00428   0.10008   0.18451
  65        2PZ         0.01032   0.01374   0.02762  -0.00549  -0.00982
  66        3S         -0.06908   0.02329  -0.00393   0.06052  -0.05824
  67        3PX        -0.05552  -0.06072  -0.00148   0.01748   0.04351
  68        3PY        -0.07186  -0.09644   0.00338   0.04562   0.08129
  69        3PZ         0.00402   0.00533   0.01851  -0.00247  -0.00430
  70        4XX        -0.01244  -0.01717  -0.00015   0.00507   0.00955
  71        4YY         0.00675   0.01042  -0.00070  -0.00226  -0.00404
  72        4ZZ         0.00246   0.00025   0.00132  -0.00119   0.00024
  73        4XY        -0.00605  -0.00618  -0.00052   0.01337   0.00803
  74        4XZ         0.00032   0.00033  -0.00051  -0.00073  -0.00044
  75        4YZ        -0.00029  -0.00066  -0.00148   0.00008   0.00027
  76 6   H  1S          0.00310   0.00005   0.32724   0.00010   0.00109
  77        2S          0.00105  -0.00093   0.26138   0.00023   0.00229
  78 7   H  1S          0.00321  -0.00027   0.32717  -0.00009   0.00167
  79        2S          0.00040   0.00076   0.26066  -0.00023  -0.00034
  80 8   H  1S         -0.02284   0.00008   0.00141   0.00005   0.01747
  81        2S         -0.02684   0.00012   0.00353   0.00007   0.02563
  82 9   H  1S         -0.14594   0.14246  -0.00317  -0.06380   0.09520
  83        2S         -0.09013   0.11008  -0.00144  -0.04743   0.08741
  84 10  H  1S         -0.05257   0.12342   0.00377   0.14340   0.04071
  85        2S         -0.03852   0.09198   0.00301   0.11372   0.02929
  86 11  H  1S         -0.16834   0.00032   0.00042  -0.00013  -0.24584
  87        2S         -0.09974   0.00022   0.00116  -0.00010  -0.21288
  88 12  H  1S         -0.05287  -0.12363   0.00404  -0.14336   0.04073
  89        2S         -0.03867  -0.09206   0.00334  -0.11358   0.02928
  90 13  H  1S         -0.14596  -0.14229  -0.00368   0.06376   0.09490
  91        2S         -0.09020  -0.11002  -0.00205   0.04744   0.08721
                          16        17        18        19        20
                           O         O         O         O         V
     Eigenvalues --    -0.46669  -0.41390  -0.35911  -0.24500   0.01127
   1 1   C  1S         -0.00018  -0.00885  -0.00008  -0.00025   0.05125
   2        2S          0.00142  -0.00859   0.00016   0.00021  -0.07051
   3        2PX        -0.00268   0.19831   0.00020   0.00126  -0.17601
   4        2PY         0.01001   0.07669  -0.01734  -0.01556  -0.13672
   5        2PZ         0.21311  -0.00295  -0.31609  -0.29891   0.00624
   6        3S         -0.00167   0.08090   0.00026   0.00212  -0.34850
   7        3PX        -0.00248   0.18306  -0.00027   0.00119  -0.19402
   8        3PY         0.00700   0.09690  -0.01331  -0.01738  -0.11975
   9        3PZ         0.14914  -0.00475  -0.24125  -0.31998   0.00563
  10        4XX         0.00013   0.00056  -0.00002  -0.00003  -0.00677
  11        4YY        -0.00100  -0.00331   0.00154   0.00004   0.01795
  12        4ZZ         0.00115  -0.00074  -0.00154  -0.00012   0.00145
  13        4XY        -0.00013   0.01380   0.00022  -0.00003   0.00678
  14        4XZ         0.00097  -0.00072   0.00496   0.00006  -0.00037
  15        4YZ        -0.01300   0.00009   0.01625   0.00109  -0.00100
  16 2   C  1S         -0.00031   0.00437  -0.00006   0.00021  -0.02351
  17        2S          0.00127  -0.01112  -0.00002  -0.00067   0.05890
  18        2PX         0.00139  -0.04862   0.00015  -0.00015   0.00293
  19        2PY         0.01529  -0.07669  -0.01375   0.00305   0.10810
  20        2PZ         0.24609   0.00639  -0.25150   0.06116  -0.00684
  21        3S         -0.00053   0.01852   0.00026  -0.00077   0.08133
  22        3PX         0.00103  -0.07670   0.00051  -0.00022  -0.06222
  23        3PY         0.00927  -0.02342  -0.01069   0.00227   0.09022
  24        3PZ         0.15906   0.00271  -0.19708   0.05429  -0.00569
  25        4XX         0.00003   0.00300  -0.00002  -0.00005  -0.00109
  26        4YY         0.00073  -0.00105  -0.00164  -0.00265  -0.00174
  27        4ZZ        -0.00066  -0.00014   0.00159   0.00274   0.00086
  28        4XY         0.00036   0.01286   0.00009   0.00101  -0.01531
  29        4XZ         0.01042  -0.00058   0.00136   0.01631   0.00087
  30        4YZ         0.00571   0.00006  -0.01709  -0.02696   0.00007
  31 3   C  1S         -0.00059   0.01760  -0.00009   0.00016  -0.01677
  32        2S          0.00164  -0.03795   0.00011  -0.00056   0.02965
  33        2PX        -0.00023  -0.00035   0.00013   0.00002   0.00036
  34        2PY         0.01483  -0.02772   0.00002   0.01947   0.02002
  35        2PZ         0.25576   0.00470  -0.00008   0.35379  -0.00072
  36        3S          0.00071   0.00535   0.00037  -0.00043   0.18956
  37        3PX        -0.00012   0.00025   0.00026  -0.00028   0.00049
  38        3PY         0.00959   0.01222   0.00025   0.01985   0.02975
  39        3PZ         0.16832   0.00155   0.00026   0.36483  -0.00052
  40        4XX         0.00006   0.00330  -0.00002  -0.00007  -0.00231
  41        4YY         0.00138  -0.00172  -0.00002   0.00041   0.00173
  42        4ZZ        -0.00133   0.00001  -0.00004  -0.00035   0.00031
  43        4XY        -0.00000  -0.00005   0.00091  -0.00000   0.00005
  44        4XZ         0.00011   0.00005   0.01629   0.00006   0.00003
  45        4YZ         0.01233   0.00026  -0.00013   0.00498  -0.00012
  46 4   C  1S         -0.00027   0.00442  -0.00000   0.00004  -0.02358
  47        2S          0.00154  -0.01111   0.00021  -0.00023   0.05919
  48        2PX        -0.00148   0.04762  -0.00034   0.00006  -0.00134
  49        2PY         0.01537  -0.07748   0.01394   0.00325   0.10843
  50        2PZ         0.24599   0.00767   0.25140   0.06245  -0.00610
  51        3S         -0.00203   0.01833  -0.00071  -0.00067   0.08087
  52        3PX        -0.00062   0.07689  -0.00016  -0.00029   0.06384
  53        3PY         0.00890  -0.02437   0.01087   0.00266   0.08931
  54        3PZ         0.15853   0.00341   0.19693   0.05588  -0.00467
  55        4XX         0.00012   0.00267   0.00001   0.00001  -0.00065
  56        4YY         0.00077  -0.00067   0.00167  -0.00259  -0.00215
  57        4ZZ        -0.00068  -0.00010  -0.00167   0.00249   0.00084
  58        4XY        -0.00038  -0.01296   0.00012  -0.00090   0.01538
  59        4XZ        -0.01033   0.00060   0.00164  -0.01674  -0.00087
  60        4YZ         0.00584   0.00012   0.01710  -0.02662   0.00012
  61 5   C  1S         -0.00028  -0.00890   0.00012  -0.00014   0.05156
  62        2S          0.00133  -0.00847  -0.00017   0.00011  -0.07099
  63        2PX         0.00221  -0.19745   0.00049   0.00034   0.17509
  64        2PY         0.00996   0.08024   0.01707  -0.01599  -0.14033
  65        2PZ         0.21276  -0.00172   0.31674  -0.29755   0.00691
  66        3S         -0.00022   0.08098  -0.00041   0.00105  -0.35038
  67        3PX         0.00172  -0.18183   0.00058  -0.00042   0.19296
  68        3PY         0.00649   0.10052   0.01304  -0.01836  -0.12415
  69        3PZ         0.14950  -0.00410   0.24180  -0.31863   0.00613
  70        4XX         0.00008   0.00017   0.00001   0.00002  -0.00686
  71        4YY        -0.00103  -0.00293  -0.00157   0.00006   0.01817
  72        4ZZ         0.00108  -0.00069   0.00162  -0.00028   0.00141
  73        4XY         0.00014  -0.01388   0.00031   0.00003  -0.00632
  74        4XZ        -0.00120   0.00077   0.00468  -0.00002   0.00033
  75        4YZ        -0.01299  -0.00003  -0.01630   0.00099  -0.00106
  76 6   H  1S         -0.05680  -0.00999   0.00130   0.00322   0.00431
  77        2S         -0.04546   0.00547   0.01830  -0.05084  -0.00767
  78 7   H  1S         -0.05582  -0.01040  -0.00153   0.00899   0.00680
  79        2S         -0.03889  -0.01554  -0.01829   0.05488   0.01008
  80 8   H  1S         -0.00215   0.22802  -0.00080  -0.00071   0.24019
  81        2S         -0.00377   0.40543  -0.00147  -0.00216   0.71953
  82 9   H  1S          0.00144  -0.09200   0.00008  -0.00018   0.00877
  83        2S          0.00103  -0.07418  -0.00010  -0.00022   0.06818
  84 10  H  1S         -0.00112   0.06216  -0.00001   0.00005  -0.05462
  85        2S         -0.00095   0.04603   0.00008   0.00047  -0.15780
  86 11  H  1S          0.00036  -0.00233   0.00006  -0.00022   0.00590
  87        2S          0.00028   0.00844   0.00005   0.00001  -0.01748
  88 12  H  1S         -0.00095   0.06234  -0.00010   0.00009  -0.05490
  89        2S         -0.00094   0.04614  -0.00011   0.00025  -0.15846
  90 13  H  1S          0.00135  -0.09214   0.00025   0.00039   0.00922
  91        2S          0.00108  -0.07435   0.00027   0.00052   0.06943
                          21        22        23        24        25
                           V         V         V         V         V
     Eigenvalues --     0.07123   0.14414   0.24412   0.26709   0.28125
   1 1   C  1S         -0.07937   0.00021   0.04295   0.00072   0.00282
   2        2S          0.14475  -0.00035  -0.05126   0.00212  -0.00442
   3        2PX         0.28914  -0.00041   0.08453  -0.00556   0.02234
   4        2PY         0.16023  -0.01533  -0.05831  -0.00678   0.00326
   5        2PZ        -0.00859  -0.27300   0.00321   0.05719   0.10104
   6        3S          0.43874  -0.00160  -0.62479   0.00545  -0.09992
   7        3PX         0.18870  -0.00049   0.20610  -0.00716   0.06212
   8        3PY         0.37750  -0.02548  -0.23982   0.00586  -0.00230
   9        3PZ        -0.02065  -0.44576   0.01127   0.21460   0.29251
  10        4XX        -0.01490   0.00003   0.00793   0.00043  -0.00068
  11        4YY        -0.00303  -0.00142   0.00279   0.00092   0.00233
  12        4ZZ         0.00469   0.00144   0.00162  -0.00132  -0.00154
  13        4XY         0.00097   0.00038  -0.00914   0.00002  -0.00022
  14        4XZ        -0.00004   0.00669   0.00042   0.00502   0.00431
  15        4YZ         0.00046  -0.01520  -0.00019   0.01304   0.02009
  16 2   C  1S          0.01693  -0.00005   0.04538  -0.00116   0.00579
  17        2S         -0.05566  -0.00021  -0.05002   0.03026  -0.02867
  18        2PX        -0.02410  -0.00010   0.12062  -0.00086   0.02294
  19        2PY        -0.04912   0.01639   0.09215  -0.01384   0.00239
  20        2PZ         0.00344   0.29271  -0.00428  -0.13653  -0.25806
  21        3S          0.11582   0.00055  -0.75990  -0.02943  -0.10065
  22        3PX         0.11472  -0.00030   0.37342  -0.00395   0.06129
  23        3PY         0.02320   0.02742   0.24732  -0.03259   0.04679
  24        3PZ         0.00008   0.49764  -0.00902  -0.42424  -0.55016
  25        4XX        -0.00107  -0.00005   0.01174   0.00549  -0.00518
  26        4YY         0.00444  -0.00198  -0.00679   0.00460  -0.00447
  27        4ZZ        -0.00197   0.00190   0.00231  -0.00098   0.00231
  28        4XY         0.02065  -0.00010   0.01177   0.00105   0.00191
  29        4XZ        -0.00118  -0.00115  -0.00086   0.01620   0.01755
  30        4YZ        -0.00037  -0.01988   0.00073  -0.00784  -0.00385
  31 3   C  1S          0.00009   0.00003   0.02919  -0.00108   0.00126
  32        2S         -0.00023  -0.00023  -0.02918   0.02788  -0.02408
  33        2PX         0.08109  -0.00016   0.00100  -0.00584   0.00636
  34        2PY        -0.00072  -0.00002   0.11871   0.01381   0.01368
  35        2PZ        -0.00088  -0.00059  -0.01005   0.23898   0.21802
  36        3S         -0.00073  -0.00031  -0.47225  -0.02580   0.01120
  37        3PX         0.11618  -0.00035   0.00166   0.00960  -0.05899
  38        3PY        -0.00118  -0.00045   0.27627   0.03617   0.03553
  39        3PZ        -0.00122  -0.00068  -0.02151   0.51935   0.62687
  40        4XX         0.00006  -0.00002  -0.01286   0.00512  -0.00452
  41        4YY        -0.00010  -0.00002   0.01888   0.00467  -0.00563
  42        4ZZ         0.00004  -0.00003   0.00118  -0.00085   0.00246
  43        4XY         0.00633  -0.00182   0.00027   0.00075  -0.00203
  44        4XZ        -0.00044  -0.03268   0.00003  -0.00190   0.00142
  45        4YZ         0.00002   0.00026  -0.00107  -0.00869  -0.01204
  46 4   C  1S         -0.01673   0.00000   0.04521   0.00131  -0.00495
  47        2S          0.05516  -0.00024  -0.04895  -0.00151   0.00298
  48        2PX        -0.02335   0.00032  -0.11851  -0.01332   0.02976
  49        2PY         0.04909  -0.01610   0.09408  -0.01446  -0.01759
  50        2PZ        -0.00348  -0.29285  -0.00303  -0.18120  -0.22094
  51        3S         -0.11691   0.00136  -0.75740  -0.04583   0.14581
  52        3PX         0.11382   0.00015  -0.36797  -0.00942   0.05206
  53        3PY        -0.02579  -0.02733   0.25254  -0.00428  -0.11190
  54        3PZ         0.00056  -0.49680  -0.00930  -0.43811  -0.53412
  55        4XX         0.00165  -0.00002   0.01161  -0.00074   0.00138
  56        4YY        -0.00501   0.00189  -0.00626  -0.00114  -0.00063
  57        4ZZ         0.00199  -0.00188   0.00222   0.00111  -0.00038
  58        4XY         0.02044  -0.00009  -0.01216  -0.00117   0.00014
  59        4XZ        -0.00108  -0.00077   0.00092  -0.01687  -0.01730
  60        4YZ         0.00058   0.01990   0.00073  -0.00887  -0.00249
  61 5   C  1S          0.07908  -0.00021   0.04280   0.00679  -0.00848
  62        2S         -0.14431   0.00037  -0.05000  -0.03522   0.03092
  63        2PX         0.28549  -0.00075  -0.08589  -0.00459   0.02194
  64        2PY        -0.16407   0.01541  -0.05672  -0.01359   0.02904
  65        2PZ         0.01058   0.27312   0.00436   0.02039   0.13055
  66        3S         -0.43686   0.00110  -0.62578  -0.03946   0.12590
  67        3PX         0.18099  -0.00081  -0.21149  -0.02676   0.08389
  68        3PY        -0.38027   0.02581  -0.23550  -0.02189   0.06586
  69        3PZ         0.02253   0.44579   0.01070   0.22212   0.28313
  70        4XX         0.01501  -0.00006   0.00834  -0.00499   0.00463
  71        4YY         0.00296   0.00146   0.00271  -0.00386   0.00606
  72        4ZZ        -0.00475  -0.00147   0.00156   0.00029  -0.00331
  73        4XY         0.00076   0.00037   0.00906  -0.00033  -0.00054
  74        4XZ         0.00001   0.00698  -0.00038  -0.00523  -0.00361
  75        4YZ        -0.00048   0.01510  -0.00026   0.01603   0.01780
  76 6   H  1S         -0.00061  -0.00171  -0.00182   0.08251  -0.08071
  77        2S         -0.01761  -0.01664  -0.05511   1.39115  -1.09580
  78 7   H  1S          0.00089   0.00016   0.00390  -0.09379   0.06396
  79        2S          0.01782   0.01527   0.04968  -1.38742   1.10199
  80 8   H  1S         -0.00026   0.00016  -0.00307  -0.01126   0.00921
  81        2S         -0.00120   0.00021   0.13298   0.00657  -0.00419
  82 9   H  1S         -0.10032   0.00020   0.02807   0.00118  -0.00058
  83        2S         -0.37007   0.00111   0.78877   0.00029   0.12444
  84 10  H  1S          0.06836  -0.00030   0.03024   0.01262  -0.00939
  85        2S          0.22629  -0.00051   1.02690  -0.01484   0.17610
  86 11  H  1S         -0.00009  -0.00011   0.03254   0.01286  -0.01046
  87        2S          0.00016  -0.00019   0.73546   0.00981   0.00646
  88 12  H  1S         -0.06814   0.00003   0.03088  -0.00206   0.00079
  89        2S         -0.22493   0.00009   1.02369   0.04607  -0.17488
  90 13  H  1S          0.10032  -0.00016   0.02840  -0.01036   0.00869
  91        2S          0.37011  -0.00117   0.78916   0.09742  -0.20580
                          26        27        28        29        30
                           V         V         V         V         V
     Eigenvalues --     0.28486   0.32669   0.33311   0.34684   0.47883
   1 1   C  1S          0.02711   0.04837   0.04914   0.02553   0.03609
   2        2S         -0.01803  -0.03007  -0.05240  -0.03254  -0.08683
   3        2PX         0.14386   0.17399   0.16674   0.04004   0.00765
   4        2PY        -0.08862  -0.07783  -0.00022   0.01262   0.17998
   5        2PZ        -0.00836   0.00568  -0.00023  -0.00058  -0.01100
   6        3S         -0.77996  -1.09514  -1.06323   0.02902  -0.99185
   7        3PX         0.47502   0.70384   0.93610   0.23158   0.33777
   8        3PY        -0.19407  -0.24988   0.10916  -0.18884   0.76221
   9        3PZ        -0.02537   0.01638  -0.00582   0.01043  -0.04117
  10        4XX        -0.00272   0.00247  -0.01330  -0.00346  -0.00354
  11        4YY         0.00097  -0.00024   0.00672   0.01386  -0.00613
  12        4ZZ         0.00242   0.00994   0.00567   0.00264  -0.00295
  13        4XY        -0.00418   0.00377  -0.00113  -0.00701   0.01298
  14        4XZ        -0.00023  -0.00022   0.00007   0.00037  -0.00065
  15        4YZ        -0.00253   0.00087  -0.00012  -0.00072   0.00026
  16 2   C  1S          0.03670  -0.02082  -0.06443  -0.05902   0.01166
  17        2S         -0.01643   0.00896   0.06708   0.10448  -0.01437
  18        2PX         0.16950  -0.07778  -0.08451  -0.04582  -0.10045
  19        2PY         0.08544  -0.03608  -0.02240  -0.05800   0.09492
  20        2PZ         0.02973  -0.00183   0.00220   0.00310  -0.00634
  21        3S         -0.97773   0.45231   1.41133   0.50353  -0.42191
  22        3PX         0.42519  -0.45243  -0.65842  -0.61746  -1.63645
  23        3PY         0.55785   0.11712  -0.07635  -0.73989   1.30642
  24        3PZ         0.03673  -0.01025   0.00459   0.04073  -0.07239
  25        4XX        -0.00424  -0.00635   0.00687  -0.00285   0.02616
  26        4YY         0.00495   0.00350  -0.00642  -0.00686  -0.03700
  27        4ZZ         0.00391  -0.00268  -0.00431   0.00054   0.00217
  28        4XY         0.00780   0.00889   0.01307   0.01442  -0.00401
  29        4XZ        -0.00251  -0.00043  -0.00071  -0.00081   0.00021
  30        4YZ         0.00031  -0.00030   0.00011   0.00049   0.00248
  31 3   C  1S         -0.00029  -0.02929  -0.00006   0.10004  -0.09116
  32        2S          0.00509  -0.01230   0.00035  -0.13358   0.01253
  33        2PX         0.01211  -0.00166   0.08639   0.00114   0.00111
  34        2PY        -0.00154  -0.18852  -0.00140   0.13634   0.15038
  35        2PZ        -0.02412   0.01001   0.00049  -0.00766  -0.00959
  36        3S         -0.00308   1.12257   0.00398  -1.44259   3.46466
  37        3PX        -0.41460  -0.00749   0.43030   0.01066   0.01402
  38        3PY        -0.00115  -0.60940  -0.00451   1.42653   1.57336
  39        3PZ        -0.07676   0.03760  -0.00025  -0.07915  -0.08623
  40        4XX         0.00074   0.00274  -0.00002   0.01139  -0.00875
  41        4YY         0.00123  -0.00006   0.00028  -0.00254   0.02760
  42        4ZZ        -0.00039  -0.00598  -0.00006   0.00029  -0.00687
  43        4XY        -0.01158  -0.00000  -0.01020  -0.00014   0.00029
  44        4XZ         0.00036   0.00010   0.00053   0.00003  -0.00001
  45        4YZ         0.00150  -0.00051   0.00001   0.00018  -0.00221
  46 4   C  1S         -0.03669  -0.02157   0.06424  -0.05922   0.01180
  47        2S          0.02151   0.01156  -0.06631   0.10480  -0.01426
  48        2PX         0.16630   0.07878  -0.08370   0.04535   0.10237
  49        2PY        -0.08693  -0.03741   0.02308  -0.05884   0.09352
  50        2PZ         0.03201   0.00076  -0.00110   0.00340  -0.00585
  51        3S          0.96579   0.46668  -1.40972   0.50818  -0.42654
  52        3PX         0.41507   0.46211  -0.65138   0.60705   1.65934
  53        3PY        -0.55578   0.10723   0.08692  -0.75060   1.27717
  54        3PZ         0.09708  -0.00898  -0.00482   0.04220  -0.06862
  55        4XX         0.00527  -0.00616  -0.00645  -0.00319   0.02622
  56        4YY        -0.00424   0.00402   0.00614  -0.00645  -0.03701
  57        4ZZ        -0.00418  -0.00279   0.00428   0.00051   0.00218
  58        4XY         0.00790  -0.00883   0.01314  -0.01447   0.00282
  59        4XZ         0.00156   0.00045  -0.00074   0.00081  -0.00012
  60        4YZ         0.00003  -0.00024  -0.00017   0.00046   0.00251
  61 5   C  1S         -0.02625   0.04864  -0.04848   0.02557   0.03600
  62        2S          0.01277  -0.02852   0.05146  -0.03246  -0.08654
  63        2PX         0.14629  -0.17655   0.16483  -0.03982  -0.00494
  64        2PY         0.08078  -0.07483  -0.00365   0.01345   0.17972
  65        2PZ        -0.02407   0.00746  -0.00061  -0.00053  -0.01052
  66        3S          0.78007  -1.10461   1.05186   0.02817  -0.98943
  67        3PX         0.47715  -0.71608   0.92577  -0.23511  -0.32677
  68        3PY         0.17713  -0.23618  -0.12857  -0.18409   0.76473
  69        3PZ        -0.04465   0.01387   0.00767   0.00976  -0.04237
  70        4XX         0.00178   0.00256   0.01324  -0.00325  -0.00387
  71        4YY        -0.00231   0.00024  -0.00679   0.01370  -0.00568
  72        4ZZ        -0.00177   0.00995  -0.00555   0.00264  -0.00293
  73        4XY        -0.00425  -0.00378  -0.00151   0.00733  -0.01306
  74        4XZ         0.00059   0.00023   0.00009  -0.00040   0.00065
  75        4YZ        -0.00219   0.00070   0.00007  -0.00071   0.00019
  76 6   H  1S          0.01618  -0.00880   0.00194   0.00040  -0.01549
  77        2S          0.22140  -0.06174   0.01917  -0.00481   0.00510
  78 7   H  1S         -0.01416   0.00163  -0.00081   0.00077  -0.00992
  79        2S         -0.22210   0.06492  -0.02012   0.00351   0.01252
  80 8   H  1S         -0.00179  -0.03975  -0.00037  -0.01593  -0.00569
  81        2S          0.00094  -0.05584  -0.00005  -0.03054  -0.37657
  82 9   H  1S          0.00208  -0.00596  -0.02102   0.02220  -0.05644
  83        2S          1.02357   1.37322   1.28994   0.40069  -0.01160
  84 10  H  1S          0.00885   0.00289   0.03295  -0.00243   0.03828
  85        2S          1.24789  -0.61370  -1.15084  -1.20785  -0.44531
  86 11  H  1S          0.00207   0.01888   0.00040   0.00420   0.10156
  87        2S         -0.00112  -1.18540  -0.00319   2.10824   0.65048
  88 12  H  1S         -0.00718   0.00400  -0.03258  -0.00233   0.03815
  89        2S         -1.24394  -0.62872   1.14427  -1.21198  -0.44692
  90 13  H  1S         -0.00380  -0.00549   0.02092   0.02222  -0.05649
  91        2S         -1.01411   1.38254  -1.27292   0.40069  -0.00974
                          31        32        33        34        35
                           V         V         V         V         V
     Eigenvalues --     0.49470   0.57953   0.59045   0.67988   0.71077
   1 1   C  1S          0.05966   0.05261  -0.03180   0.01038  -0.04420
   2        2S         -0.05311   0.11006   0.06519  -0.17315  -0.05584
   3        2PX        -0.12584  -0.00174  -0.00178  -0.03938   0.23781
   4        2PY         0.13027   0.02238  -0.04177   0.01865   0.26875
   5        2PZ        -0.00698   0.00935   0.00248  -0.38414  -0.01949
   6        3S         -1.30416  -2.14155   1.79807  -0.04603   0.43166
   7        3PX        -0.76074  -0.29363  -0.22827  -0.12794  -0.03696
   8        3PY         1.42031   1.95404  -1.41779   0.24549  -0.92790
   9        3PZ        -0.07859  -0.11363   0.07755   0.27651   0.05596
  10        4XX         0.00530  -0.02426   0.01719  -0.02310   0.01410
  11        4YY         0.00091   0.04085   0.01851  -0.01684  -0.06394
  12        4ZZ        -0.00250   0.00416  -0.00341  -0.00311   0.02024
  13        4XY        -0.01343  -0.01106  -0.03310  -0.00304   0.01938
  14        4XZ         0.00071   0.00022   0.00179   0.01157  -0.00079
  15        4YZ        -0.00018  -0.00278  -0.00130   0.01582   0.00525
  16 2   C  1S         -0.07539  -0.08919  -0.01465  -0.02160   0.01768
  17        2S          0.06676   0.07674   0.04876  -0.20149  -0.08183
  18        2PX         0.18088   0.00385   0.07331  -0.03464   0.18335
  19        2PY         0.04339   0.23854  -0.09305   0.01610  -0.41017
  20        2PZ        -0.00285  -0.00442   0.00286  -0.22975   0.02698
  21        3S          2.29387   3.51255   0.78291   0.80716  -0.34451
  22        3PX         1.08654   1.92253   1.42693   0.38249  -0.44555
  23        3PY         1.05553   1.43589  -2.67380   0.15805   0.04943
  24        3PZ        -0.05722  -0.08332   0.14946   0.14742  -0.00728
  25        4XX         0.02204   0.01563   0.01134  -0.02799   0.02585
  26        4YY        -0.01123   0.02264  -0.00549  -0.03376  -0.03476
  27        4ZZ        -0.00073  -0.00590   0.00276   0.00781  -0.00191
  28        4XY        -0.00710   0.00018   0.03435  -0.00159  -0.01499
  29        4XZ         0.00039   0.00028  -0.00199  -0.00821   0.00116
  30        4YZ         0.00068  -0.00151   0.00059  -0.01321   0.00179
  31 3   C  1S          0.00009   0.06624  -0.00053   0.00990   0.00033
  32        2S         -0.00022   0.07326  -0.00217  -0.21385   0.00448
  33        2PX         0.01064   0.00078   0.27496   0.00074  -0.30547
  34        2PY        -0.00030  -0.07789  -0.00204  -0.06704   0.00312
  35        2PZ        -0.00015   0.01373  -0.00137  -0.23800   0.00239
  36        3S         -0.00298  -2.90318   0.02220  -0.38505  -0.00867
  37        3PX         1.37486   0.00151   3.43182  -0.01218   0.58667
  38        3PY        -0.01212  -2.54394  -0.01035  -0.47055  -0.00662
  39        3PZ         0.00195   0.13685   0.00413   0.13781  -0.00212
  40        4XX        -0.00055  -0.03872  -0.00011  -0.04104   0.00026
  41        4YY         0.00045   0.00894  -0.00032  -0.03087   0.00137
  42        4ZZ         0.00001   0.01289  -0.00008   0.00594  -0.00010
  43        4XY        -0.03778   0.00046  -0.00220  -0.00001  -0.04786
  44        4XZ         0.00211  -0.00012   0.00021  -0.00030   0.00239
  45        4YZ        -0.00008   0.00042  -0.00009  -0.00292   0.00023
  46 4   C  1S          0.07535  -0.08908   0.01578  -0.02138  -0.01752
  47        2S         -0.06681   0.07467  -0.05206  -0.20412   0.08758
  48        2PX         0.18004   0.00075   0.07552   0.03526   0.18719
  49        2PY        -0.04657   0.23962   0.08927   0.01051   0.40488
  50        2PZ         0.00273  -0.00618  -0.00497  -0.23260  -0.02400
  51        3S         -2.29286   3.50449  -0.82604   0.81081   0.33895
  52        3PX         1.06651  -1.87963   1.49557  -0.39042  -0.44773
  53        3PY        -1.07545   1.50060   2.63110   0.15850  -0.04112
  54        3PZ         0.05984  -0.08889  -0.14372   0.15292   0.00296
  55        4XX        -0.02232   0.01517  -0.01090  -0.02801  -0.02565
  56        4YY         0.01146   0.02240   0.00391  -0.03363   0.03617
  57        4ZZ         0.00073  -0.00585  -0.00272   0.00709   0.00193
  58        4XY        -0.00648   0.00043   0.03465   0.00161  -0.01372
  59        4XZ         0.00033  -0.00025  -0.00186   0.00807   0.00062
  60        4YZ        -0.00063  -0.00163  -0.00021  -0.01351  -0.00292
  61 5   C  1S         -0.05976   0.05302   0.03114   0.00986   0.04402
  62        2S          0.05390   0.10752  -0.06630  -0.17381   0.05495
  63        2PX        -0.12810   0.00230  -0.00151   0.03851   0.23422
  64        2PY        -0.12832   0.02310   0.04234   0.01725  -0.27627
  65        2PZ         0.00772   0.00728  -0.00010  -0.38653   0.00458
  66        3S          1.30540  -2.16214  -1.77157  -0.03687  -0.42760
  67        3PX        -0.78308   0.32308  -0.20935   0.13936  -0.02181
  68        3PY        -1.40933   1.96727   1.39577   0.23520   0.93077
  69        3PZ         0.07667  -0.11233  -0.07881   0.27613  -0.04133
  70        4XX        -0.00558  -0.02447  -0.01766  -0.02295  -0.01398
  71        4YY        -0.00046   0.04011  -0.01797  -0.01797   0.06294
  72        4ZZ         0.00254   0.00412   0.00340  -0.00242  -0.02031
  73        4XY        -0.01332   0.01184  -0.03327   0.00284   0.02064
  74        4XZ         0.00073  -0.00027   0.00180  -0.01132  -0.00117
  75        4YZ         0.00018  -0.00263   0.00130   0.01641  -0.00496
  76 6   H  1S         -0.00098   0.04981  -0.00695  -0.47044   0.00641
  77        2S         -0.00800  -0.01603  -0.01472   0.41238   0.02282
  78 7   H  1S          0.00231   0.04822   0.00438  -0.47746  -0.00802
  79        2S          0.00641  -0.05916   0.01674   0.37803  -0.02109
  80 8   H  1S          0.00015  -0.03298   0.00039  -0.01542  -0.00067
  81        2S          0.00038  -0.48337   0.00317  -0.04401  -0.00043
  82 9   H  1S          0.04665   0.02096   0.18316  -0.01588  -0.09494
  83        2S         -0.87210  -0.28779   0.09604  -0.14382   0.21995
  84 10  H  1S          0.03369   0.02749   0.12850  -0.06318   0.02033
  85        2S          0.79001   0.93396  -0.15136   0.11007  -0.22152
  86 11  H  1S         -0.00012   0.08700  -0.00104  -0.03867   0.00126
  87        2S         -0.00030  -1.07315   0.00666  -0.25448   0.00094
  88 12  H  1S         -0.03377   0.02502  -0.12940  -0.06147  -0.01943
  89        2S         -0.78966   0.93553   0.13808   0.11210   0.22477
  90 13  H  1S         -0.04638   0.01817  -0.18331  -0.01793   0.09368
  91        2S          0.87200  -0.28988  -0.09212  -0.14554  -0.22026
                          36        37        38        39        40
                           V         V         V         V         V
     Eigenvalues --     0.77328   0.78849   0.82684   0.84346   0.85214
   1 1   C  1S          0.02028  -0.01289   0.00069   0.00466  -0.00219
   2        2S         -0.31859  -0.14436  -0.01977  -0.14801  -0.40709
   3        2PX        -0.11563   0.12704  -0.00515   0.01759   0.07449
   4        2PY         0.20702  -0.09351  -0.03010   0.09529   0.38774
   5        2PZ         0.38110   0.18808  -0.64888  -0.29139   0.00392
   6        3S          0.07987   0.08973  -0.02416   0.26550   0.23098
   7        3PX        -0.12892  -0.17180  -0.01036  -0.06368  -0.28825
   8        3PY        -0.03924   0.50793   0.06721  -0.10123  -0.23499
   9        3PZ        -0.35238  -0.20075   0.70069   0.41368  -0.02467
  10        4XX        -0.00845  -0.06558  -0.00042  -0.02135  -0.04950
  11        4YY        -0.03152  -0.01783  -0.00039   0.00482  -0.04825
  12        4ZZ        -0.01160   0.02191  -0.00412  -0.00056   0.00491
  13        4XY        -0.03120   0.06230  -0.00229   0.00699  -0.01331
  14        4XZ        -0.00605  -0.00699  -0.02683   0.01118  -0.00082
  15        4YZ        -0.01667  -0.00510   0.04033  -0.00980   0.00461
  16 2   C  1S         -0.03340  -0.01842  -0.00149  -0.02446  -0.09454
  17        2S         -0.39998  -0.12861  -0.00567  -0.25172  -0.07763
  18        2PX        -0.15336   0.18467   0.00533  -0.05127   0.34629
  19        2PY         0.04165   0.02837  -0.03282   0.14459  -0.26555
  20        2PZ         0.20985   0.07327  -0.34014   0.48442  -0.03829
  21        3S          0.99845   0.64304   0.06648   0.34528   0.97917
  22        3PX         0.62525  -0.34105   0.03124   0.02205   0.35017
  23        3PY         0.10598   0.13441   0.08102  -0.32152   0.37458
  24        3PZ        -0.15183  -0.05340   0.29165  -0.53470   0.03976
  25        4XX        -0.03052  -0.07754   0.00048  -0.05051  -0.09729
  26        4YY        -0.08132   0.01058  -0.00457  -0.06221  -0.08791
  27        4ZZ         0.01251   0.02310   0.00539   0.02628   0.07241
  28        4XY         0.02397  -0.06512  -0.00192   0.00386   0.03991
  29        4XZ         0.00733   0.00606  -0.01526   0.03907  -0.00650
  30        4YZ         0.02522   0.01018  -0.04926  -0.01286   0.01172
  31 3   C  1S          0.00791   0.00088   0.00542  -0.02596   0.09360
  32        2S         -0.48099  -0.11587  -0.03357  -0.13745   0.07408
  33        2PX        -0.01321  -0.00108  -0.03541   0.23656   0.42384
  34        2PY        -0.16520   0.13571  -0.00670   0.05437  -0.19169
  35        2PZ         0.18940   0.05032   0.17834   0.47459  -0.03550
  36        3S         -0.36223   0.31772  -0.07398   0.36733  -0.91120
  37        3PX        -0.01482  -0.00643  -0.01308   0.00080  -0.09924
  38        3PY        -0.53565  -0.28683  -0.09183   0.08835  -0.57635
  39        3PZ        -0.07151  -0.01268  -0.13842  -0.38925   0.06814
  40        4XX        -0.10662   0.05039  -0.00077  -0.04119   0.10379
  41        4YY        -0.02886  -0.09367   0.00016  -0.03003   0.06710
  42        4ZZ         0.00660   0.01276  -0.00323   0.01477  -0.06538
  43        4XY         0.00053  -0.00148   0.00362  -0.01383  -0.02682
  44        4XZ        -0.00178  -0.00036   0.03531  -0.00749   0.00267
  45        4YZ         0.00657   0.00694   0.01710   0.05475  -0.01374
  46 4   C  1S         -0.03598  -0.01883  -0.00971   0.03129   0.00586
  47        2S         -0.41709  -0.13213  -0.05164   0.02010   0.36564
  48        2PX         0.15477  -0.18377  -0.01392   0.11124  -0.23779
  49        2PY         0.04075   0.03089   0.02466   0.09072  -0.34612
  50        2PZ         0.16702   0.06081   0.61525   0.25013  -0.00330
  51        3S          1.05125   0.65454   0.18368  -0.28897   0.01079
  52        3PX        -0.65501   0.33292  -0.07059   0.15669  -0.13111
  53        3PY         0.09316   0.12270  -0.02220  -0.02249   0.81420
  54        3PZ        -0.11199  -0.04078  -0.59800  -0.32888  -0.01360
  55        4XX        -0.03603  -0.07662  -0.01296   0.03466   0.04726
  56        4YY        -0.08418   0.00829  -0.00983   0.02582   0.07836
  57        4ZZ         0.01383   0.02321   0.00394  -0.01899  -0.01762
  58        4XY        -0.02545   0.06665  -0.00354   0.01575  -0.00275
  59        4XZ        -0.00507  -0.00555  -0.03765  -0.02659   0.00252
  60        4YZ         0.02226   0.00943   0.03288  -0.04180  -0.00181
  61 5   C  1S          0.02052  -0.01294   0.00087   0.00171  -0.01030
  62        2S         -0.33756  -0.14872  -0.07120   0.16523   0.11125
  63        2PX         0.12253  -0.12769   0.00537   0.00307  -0.01220
  64        2PY         0.20303  -0.09371   0.05213  -0.12763  -0.03459
  65        2PZ         0.33744   0.17409   0.40241  -0.54997   0.06464
  66        3S          0.11348   0.09973   0.06165  -0.21639  -0.51581
  67        3PX         0.14094   0.18519   0.03742  -0.09451   0.03728
  68        3PY        -0.03634   0.50728  -0.01963   0.14098   0.21620
  69        3PZ        -0.31083  -0.18741  -0.37713   0.68402  -0.08955
  70        4XX        -0.01098  -0.06815  -0.00834   0.02399   0.02278
  71        4YY        -0.03351  -0.01654  -0.01146   0.02044  -0.03613
  72        4ZZ        -0.01205   0.02192   0.00363  -0.00158   0.00833
  73        4XY         0.03090  -0.06141  -0.00131  -0.00312   0.01628
  74        4XZ         0.00781   0.00734  -0.02950   0.00377  -0.00151
  75        4YZ        -0.01320  -0.00430  -0.04103   0.01023   0.00123
  76 6   H  1S         -0.12266  -0.07957   0.02626   0.03443   0.00153
  77        2S          0.20782   0.10294   0.06444  -0.20942   0.03634
  78 7   H  1S         -0.17282  -0.09309  -0.01641   0.11843  -0.02082
  79        2S          0.07036   0.07456  -0.07107   0.07135  -0.01949
  80 8   H  1S          0.04824  -0.15632  -0.00327  -0.00155  -0.00145
  81        2S          0.03280  -0.15439  -0.00006  -0.00677   0.09421
  82 9   H  1S          0.11244  -0.35159  -0.00186  -0.02846  -0.06012
  83        2S         -0.23590  -0.00183  -0.01754  -0.02196  -0.21356
  84 10  H  1S         -0.01494  -0.39249  -0.00394  -0.15407  -0.29163
  85        2S          0.07785   0.06303   0.02749  -0.10716   0.23835
  86 11  H  1S          0.02773  -0.33265   0.00560  -0.12336   0.32197
  87        2S         -0.45089   0.07796  -0.04680   0.03108  -0.30002
  88 12  H  1S         -0.02442  -0.39374  -0.03899   0.08413   0.13788
  89        2S          0.08129   0.06512   0.02112  -0.06013   0.33908
  90 13  H  1S          0.10892  -0.35299  -0.01169   0.02128   0.00613
  91        2S         -0.24736  -0.00571  -0.03661   0.07730  -0.07106
                          41        42        43        44        45
                           V         V         V         V         V
     Eigenvalues --     0.85603   0.90453   0.92041   0.93384   0.95007
   1 1   C  1S         -0.00955   0.00001  -0.00973  -0.04185  -0.00198
   2        2S          0.13807   0.00095  -0.11798  -0.38596   0.04491
   3        2PX         0.02539   0.00435  -0.22019  -0.15988   0.04400
   4        2PY        -0.04112  -0.02137  -0.47116  -0.49158   0.04929
   5        2PZ        -0.09211  -0.53653   0.13587   0.02443  -0.08134
   6        3S         -0.50691  -0.00035   0.17987   1.13494   0.00118
   7        3PX        -0.02647  -0.00378   0.10370  -0.38599  -0.04776
   8        3PY         0.21239   0.03675   0.61749   0.47051  -0.09364
   9        3PZ         0.13050   0.85129  -0.08533  -0.03905   0.29308
  10        4XX         0.02421   0.00005  -0.01533  -0.08042  -0.00066
  11        4YY        -0.02593  -0.00024  -0.07440  -0.12321   0.00953
  12        4ZZ         0.00947   0.00139   0.00338   0.04285   0.00500
  13        4XY        -0.01362  -0.00090   0.00760   0.03251   0.00137
  14        4XZ         0.00838  -0.01563  -0.00067  -0.00312   0.02229
  15        4YZ        -0.00327  -0.01317  -0.01005   0.01292  -0.01977
  16 2   C  1S          0.00912  -0.00074   0.03482   0.00413  -0.00194
  17        2S          0.28631  -0.00600   0.17287  -0.36572  -0.00161
  18        2PX         0.17779  -0.00114   0.06223   0.03752  -0.00807
  19        2PY        -0.27318   0.03517  -0.19502  -0.32269   0.04527
  20        2PZ         0.23289   0.58765   0.30515  -0.04138   0.51102
  21        3S          0.02628   0.00828   0.02044   1.38908  -0.03680
  22        3PX         0.09331  -0.00009   0.12667   0.72622   0.02649
  23        3PY         0.67682  -0.05526   0.21865  -0.60663  -0.13292
  24        3PZ        -0.28512  -0.89029  -0.34256   0.11262  -1.00660
  25        4XX         0.04067  -0.00118   0.03051  -0.07697  -0.00082
  26        4YY         0.06903  -0.00276   0.09410   0.04960  -0.00555
  27        4ZZ        -0.01739   0.00204  -0.04949  -0.01204   0.00185
  28        4XY        -0.00152   0.00090  -0.00214  -0.02413  -0.00050
  29        4XZ         0.01737   0.01956   0.01675  -0.00143  -0.02120
  30        4YZ        -0.01032  -0.01069  -0.00151  -0.00507   0.01815
  31 3   C  1S          0.07516  -0.00027   0.01699  -0.00194  -0.00243
  32        2S         -0.02761  -0.01207   0.41858  -0.03131  -0.01428
  33        2PX        -0.43557  -0.00124  -0.02537   0.06434   0.00724
  34        2PY        -0.15417  -0.00245   0.07388  -0.00343  -0.04729
  35        2PZ         0.18065  -0.00405   0.16647  -0.00761  -0.86960
  36        3S         -0.59653   0.01740  -0.59908   0.02998   0.01923
  37        3PX         0.14154   0.00588   0.15595   1.58065   0.03481
  38        3PY        -0.47957  -0.00028  -0.03007  -0.02097   0.09723
  39        3PZ        -0.11185   0.00341  -0.07135  -0.01577   1.49955
[...]
  82 9   H  1S          0.00000  -0.00008  -0.00011  -0.00013  -0.00014
  83        2S          0.00010  -0.00160  -0.00147  -0.00189  -0.00195
  84 10  H  1S         -0.00000   0.00000   0.00000  -0.00000   0.00000
  85        2S         -0.00000   0.00010   0.00017   0.00001   0.00024
  86 11  H  1S         -0.00000   0.00000   0.00000   0.00000   0.00000
  87        2S         -0.00000   0.00010   0.00003   0.00032   0.00006
  88 12  H  1S          0.00000  -0.00008  -0.00002  -0.00034  -0.00002
  89        2S          0.00010  -0.00157  -0.00022  -0.00481  -0.00024
  90 13  H  1S         -0.00169   0.02585   0.00878   0.01012   0.07521
  91        2S         -0.00060   0.00924   0.00522   0.00582   0.04371
                          66        67        68        69        70
  66        3S          0.26444
  67        3PX         0.00000   0.10776
  68        3PY         0.00000   0.00000   0.09363
  69        3PZ         0.00000  -0.00000  -0.00000   0.10540
  70        4XX         0.00409   0.00000   0.00000   0.00000   0.00235
  71        4YY         0.00128   0.00000   0.00000   0.00000  -0.00031
  72        4ZZ         0.00371   0.00000   0.00000   0.00000  -0.00028
  73        4XY         0.00000   0.00000   0.00000   0.00000   0.00000
  74        4XZ        -0.00000   0.00000   0.00000   0.00000   0.00000
  75        4YZ        -0.00000   0.00000   0.00000   0.00000   0.00000
  76 6   H  1S         -0.00000  -0.00000   0.00000   0.00000   0.00000
  77        2S         -0.00000  -0.00000   0.00000   0.00000  -0.00000
  78 7   H  1S         -0.00000  -0.00000   0.00000   0.00000  -0.00000
  79        2S         -0.00000  -0.00000   0.00000   0.00000   0.00000
  80 8   H  1S          0.03609   0.06095   0.00918   0.00151   0.00770
  81        2S          0.01496   0.05605   0.00820   0.00158   0.00628
  82 9   H  1S         -0.00194  -0.00111  -0.00215  -0.00145  -0.00000
  83        2S         -0.00624  -0.00316  -0.00499  -0.00414  -0.00012
  84 10  H  1S          0.00007   0.00012  -0.00000   0.00016  -0.00000
  85        2S          0.00097   0.00119   0.00003   0.00170  -0.00001
  86 11  H  1S          0.00007   0.00001   0.00024   0.00003  -0.00000
  87        2S          0.00097   0.00021   0.00234   0.00035  -0.00000
  88 12  H  1S         -0.00192  -0.00033  -0.00397  -0.00037   0.00000
  89        2S         -0.00619  -0.00067  -0.01080  -0.00076   0.00007
  90 13  H  1S          0.03611   0.00683   0.00762   0.05705  -0.00070
  91        2S          0.01480   0.00669   0.00674   0.05219  -0.00220
                          71        72        73        74        75
  71        4YY         0.00202
  72        4ZZ        -0.00034   0.00236
  73        4XY        -0.00000  -0.00000   0.00135
  74        4XZ        -0.00000  -0.00000   0.00000   0.00145
  75        4YZ         0.00000  -0.00000  -0.00000  -0.00000   0.00121
  76 6   H  1S          0.00000   0.00000   0.00000  -0.00000   0.00000
  77        2S          0.00000   0.00000  -0.00000  -0.00000  -0.00000
  78 7   H  1S          0.00000   0.00000   0.00000  -0.00000  -0.00000
  79        2S          0.00000  -0.00000   0.00000  -0.00000   0.00000
  80 8   H  1S         -0.00071  -0.00088   0.00242   0.00039   0.00004
  81        2S         -0.00148  -0.00280   0.00048   0.00006   0.00001
  82 9   H  1S          0.00002  -0.00001   0.00001  -0.00001   0.00001
  83        2S          0.00033  -0.00019   0.00003  -0.00008   0.00003
  84 10  H  1S          0.00000  -0.00000  -0.00000  -0.00000  -0.00000
  85        2S          0.00001  -0.00001  -0.00000   0.00000  -0.00000
  86 11  H  1S         -0.00000  -0.00000  -0.00000   0.00000  -0.00000
  87        2S          0.00001  -0.00000  -0.00000   0.00000  -0.00001
  88 12  H  1S         -0.00000   0.00000   0.00001   0.00000   0.00001
  89        2S         -0.00030   0.00009   0.00005   0.00001   0.00007
  90 13  H  1S         -0.00079   0.00673   0.00019   0.00166   0.00192
  91        2S         -0.00169   0.00571   0.00005   0.00031   0.00038
                          76        77        78        79        80
  76 6   H  1S          0.21629
  77        2S          0.11702   0.14611
  78 7   H  1S          0.10059   0.09113   0.21601
  79        2S          0.09033   0.12417   0.11584   0.14339
  80 8   H  1S         -0.00000  -0.00000  -0.00000   0.00000   0.20543
  81        2S          0.00000   0.00001   0.00000   0.00002   0.09791
  82 9   H  1S         -0.00000  -0.00000  -0.00000   0.00000  -0.00000
  83        2S         -0.00000  -0.00000  -0.00000  -0.00000  -0.00005
  84 10  H  1S          0.00000   0.00000   0.00000  -0.00000  -0.00000
  85        2S          0.00000   0.00000   0.00000  -0.00000  -0.00000
  86 11  H  1S          0.00000   0.00000   0.00000  -0.00000  -0.00000
  87        2S          0.00000   0.00000   0.00000  -0.00000  -0.00000
  88 12  H  1S         -0.00000  -0.00000  -0.00000   0.00000  -0.00000
  89        2S         -0.00000  -0.00000  -0.00000   0.00000  -0.00005
  90 13  H  1S          0.00000   0.00000   0.00000  -0.00000  -0.00037
  91        2S          0.00000   0.00000   0.00000   0.00000  -0.00604
                          81        82        83        84        85
  81        2S          0.12216
  82 9   H  1S         -0.00003   0.20826
  83        2S          0.00018   0.08721   0.09282
  84 10  H  1S         -0.00000  -0.00000  -0.00025   0.20927
  85        2S         -0.00012  -0.00019  -0.00066   0.08763   0.09574
  86 11  H  1S         -0.00000  -0.00000  -0.00000  -0.00000  -0.00004
  87        2S         -0.00012  -0.00000  -0.00009  -0.00004   0.00012
  88 12  H  1S         -0.00002  -0.00000  -0.00000  -0.00000  -0.00000
  89        2S          0.00019  -0.00000  -0.00004  -0.00000  -0.00009
  90 13  H  1S         -0.00604  -0.00000  -0.00005  -0.00000  -0.00000
  91        2S         -0.01734  -0.00003   0.00017  -0.00000  -0.00012
                          86        87        88        89        90
  86 11  H  1S          0.20926
  87        2S          0.08763   0.09574
  88 12  H  1S         -0.00000  -0.00019   0.20824
  89        2S         -0.00025  -0.00066   0.08723   0.09285
  90 13  H  1S         -0.00000  -0.00000  -0.00000  -0.00005   0.20573
  91        2S         -0.00000  -0.00012  -0.00003   0.00017   0.09793
                          91
  91        2S          0.12203
     Gross orbital populations:
                           1
   1 1   C  1S          1.99663
   2        2S          0.66463
   3        2PX         0.60418
   4        2PY         0.75122
   5        2PZ         0.63593
   6        3S          0.51854
   7        3PX         0.35872
   8        3PY         0.29407
   9        3PZ         0.31298
  10        4XX        -0.00425
  11        4YY         0.03727
  12        4ZZ         0.00189
  13        4XY         0.00945
  14        4XZ         0.00640
  15        4YZ         0.01065
  16 2   C  1S          1.99661
  17        2S          0.66954
  18        2PX         0.61500
  19        2PY         0.73041
  20        2PZ         0.65157
  21        3S          0.49036
  22        3PX         0.40359
  23        3PY         0.19063
  24        3PZ         0.37721
  25        4XX         0.00187
  26        4YY         0.01690
  27        4ZZ         0.01148
  28        4XY         0.01105
  29        4XZ         0.00949
  30        4YZ         0.01210
  31 3   C  1S          1.99661
  32        2S          0.66953
  33        2PX         0.61947
  34        2PY         0.71981
  35        2PZ         0.65778
  36        3S          0.49013
  37        3PX         0.35402
  38        3PY         0.30773
  39        3PZ         0.30915
  40        4XX        -0.00131
  41        4YY         0.03229
  42        4ZZ         0.00535
  43        4XY         0.00917
  44        4XZ         0.00565
  45        4YZ         0.01175
  46 4   C  1S          1.99663
  47        2S          0.66440
  48        2PX         0.62517
  49        2PY         0.70030
  50        2PZ         0.66460
  51        3S          0.51987
  52        3PX         0.38160
  53        3PY         0.24156
  54        3PZ         0.34429
  55        4XX         0.00237
  56        4YY         0.02174
  57        4ZZ         0.01055
  58        4XY         0.00853
  59        4XZ         0.00767
  60        4YZ         0.01052
  61 5   C  1S          1.99680
  62        2S          0.63480
  63        2PX         0.69244
  64        2PY         0.67802
  65        2PZ         0.69422
  66        3S          0.60787
  67        3PX         0.35855
  68        3PY         0.28259
  69        3PZ         0.34261
  70        4XX         0.02032
  71        4YY         0.01434
  72        4ZZ         0.02006
  73        4XY         0.00911
  74        4XZ         0.00913
  75        4YZ         0.00849
  76 6   H  1S          0.52423
  77        2S          0.47843
  78 7   H  1S          0.52356
  79        2S          0.47376
  80 8   H  1S          0.51848
  81        2S          0.29523
  82 9   H  1S          0.52684
  83        2S          0.28182
  84 10  H  1S          0.52834
  85        2S          0.27793
  86 11  H  1S          0.52832
  87        2S          0.27795
  88 12  H  1S          0.52678
  89        2S          0.28205
  90 13  H  1S          0.51923
  91        2S          0.29462
          Condensed to atoms (all electrons):
               1          2          3          4          5          6
     1  C    5.003885   0.687097  -0.067934  -0.115664   0.391613   0.000000
     2  C    0.687097   4.890365   0.439216  -0.068103  -0.089512   0.000000
     3  C   -0.067934   0.439216   4.890435   0.686487  -0.089697  -0.000000
     4  C   -0.115664  -0.068103   0.686487   5.005255   0.392131  -0.000001
     5  C    0.391613  -0.089512  -0.089697   0.392131   5.057710  -0.000002
     6  H    0.000000   0.000000  -0.000000  -0.000001  -0.000002   0.596437
     7  H   -0.000001  -0.000000   0.000002   0.000009  -0.000003   0.406219
     8  H   -0.031175   0.000633   0.000644  -0.031030   0.381022   0.000010
     9  H    0.385979  -0.025841   0.002941   0.003552  -0.032432  -0.000000
    10  H   -0.031054   0.381058  -0.030775   0.003441   0.004744   0.000000
    11  H    0.003424  -0.030743   0.381043  -0.031050   0.004728   0.000000
    12  H    0.003534   0.002948  -0.025941   0.385934  -0.032193  -0.000000
    13  H   -0.031397   0.000679   0.000716  -0.031144   0.381245   0.000000
               7          8          9         10         11         12
     1  C   -0.000001  -0.031175   0.385979  -0.031054   0.003424   0.003534
     2  C   -0.000000   0.000633  -0.025841   0.381058  -0.030743   0.002948
     3  C    0.000002   0.000644   0.002941  -0.030775   0.381043  -0.025941
     4  C    0.000009  -0.031030   0.003552   0.003441  -0.031050   0.385934
     5  C   -0.000003   0.381022  -0.032432   0.004744   0.004728  -0.032193
     6  H    0.406219   0.000010  -0.000000   0.000000   0.000000  -0.000000
     7  H    0.591077   0.000021  -0.000000  -0.000000  -0.000000   0.000000
     8  H    0.000021   0.523415   0.000105  -0.000129  -0.000129   0.000121
     9  H   -0.000000   0.000105   0.475494  -0.001103  -0.000091  -0.000037
    10  H   -0.000000  -0.000129  -0.001103   0.480273   0.000039  -0.000091
    11  H   -0.000000  -0.000129  -0.000091   0.000039   0.480272  -0.001098
    12  H    0.000000   0.000121  -0.000037  -0.000091  -0.001098   0.475557
    13  H    0.000000  -0.029799   0.000095  -0.000129  -0.000128   0.000099
              13
     1  C   -0.031397
     2  C    0.000679
     3  C    0.000716
     4  C   -0.031144
     5  C    0.381245
     6  H    0.000000
     7  H    0.000000
     8  H   -0.029799
     9  H    0.000095
    10  H   -0.000129
    11  H   -0.000128
    12  H    0.000099
    13  H    0.523620
 Mulliken charges:
               1
     1  C   -0.198309
     2  C   -0.187799
     3  C   -0.187136
     4  C   -0.199816
     5  C   -0.369353
     6  H   -0.002663
     7  H    0.002676
     8  H    0.186291
     9  H    0.191338
    10  H    0.193726
    11  H    0.193733
    12  H    0.191168
    13  H    0.186143
 Sum of Mulliken charges =  -0.00000
 Mulliken charges with hydrogens summed into heavy atoms:
               1
     1  C   -0.006971
     2  C    0.005927
     3  C    0.006597
     4  C   -0.005972
     5  C    0.000419
 Electronic spatial extent (au):  <R**2>=            526.7142
 Charge=              0.0000 electrons
 Dipole moment (field-independent basis, Debye):
    X=             -0.1545    Y=             -0.1727    Z=             -0.1902  Tot=              0.2998
 Quadrupole moment (field-independent basis, Debye-Ang):
   XX=            -32.6943   YY=            -29.6820   ZZ=            -31.7118
   XY=              0.3723   XZ=              2.5219   YZ=              0.4402
 Traceless Quadrupole moment (field-independent basis, Debye-Ang):
   XX=             -1.3316   YY=              1.6807   ZZ=             -0.3491
   XY=              0.3723   XZ=              2.5219   YZ=              0.4402
 Octapole moment (field-independent basis, Debye-Ang**2):
  XXX=              1.6353  YYY=              0.1803  ZZZ=             -2.9767  XYY=              1.3426
  XXY=             -1.5770  XXZ=              2.0910  XZZ=              2.5949  YZZ=              0.0144
  YYZ=              0.4073  XYZ=              2.1026
 Hexadecapole moment (field-independent basis, Debye-Ang**3):
 XXXX=           -390.9713 YYYY=           -191.0134 ZZZZ=           -169.9329 XXXY=             12.9615
 XXXZ=             10.1417 YYYX=             -1.1736 YYYZ=             -0.4788 ZZZX=             13.7265
 ZZZY=              1.1973 XXYY=            -93.9489 XXZZ=            -89.4383 YYZZ=            -61.6364
 XXYZ=             -4.7268 YYXZ=              5.0255 ZZXY=             -0.6185
 N-N= 1.654857794291D+02 E-N=-7.820614164246D+02  KE= 1.938748479278D+02
 Orbital energies and kinetic energies (alpha):
                                 1                 2
   1         O               -11.223642         16.003169
   2         O               -11.219400         15.990128
   3         O               -11.218778         15.997020
   4         O               -11.216739         16.010958
   5         O               -11.216504         16.011361
   6         O                -1.149931          1.436650
   7         O                -0.966245          1.619661
   8         O                -0.949038          1.432574
   9         O                -0.750572          1.331860
  10         O                -0.722061          1.287932
  11         O                -0.693594          0.960758
  12         O                -0.597440          0.569100
  13         O                -0.590574          0.900096
  14         O                -0.561627          1.300969
  15         O                -0.524219          1.380344
  16         O                -0.497676          1.309598
  17         O                -0.494936          1.302651
  18         O                -0.410338          0.992998
  19         O                -0.307589          1.099594
  20         V                 0.146319          1.101756
  21         V                 0.242616          0.455631
  22         V                 0.260886          0.829615
  23         V                 0.267350          1.188712
  24         V                 0.293500          0.867121
  25         V                 0.316627          0.836243
  26         V                 0.326278          0.947185
  27         V                 0.326715          0.979190
  28         V                 0.333208          0.813081
  29         V                 0.378555          1.352774
  30         V                 0.408878          1.170744
  31         V                 0.505679          1.192339
  32         V                 0.520601          1.307624
  33         V                 0.653179          1.409887
  34         V                 0.750752          1.567726
  35         V                 0.769980          1.529321
  36         V                 0.775641          1.932879
  37         V                 0.781976          1.582935
  38         V                 0.809220          2.065925
  39         V                 0.824955          2.061849
  40         V                 0.846334          2.207293
  41         V                 0.883711          2.606443
  42         V                 0.904525          2.274425
  43         V                 0.909605          2.405758
  44         V                 0.942650          2.498390
  45         V                 0.952455          1.854642
  46         V                 1.004480          2.594503
  47         V                 1.050628          2.336862
  48         V                 1.127541          2.743739
  49         V                 1.141282          2.719097
  50         V                 1.141844          2.880171
  51         V                 1.149000          2.712116
  52         V                 1.182982          2.855558
  53         V                 1.196971          2.648934
  54         V                 1.208391          2.720776
  55         V                 1.288832          2.472002
  56         V                 1.410200          2.621386
  57         V                 1.417517          2.215246
  58         V                 1.421701          2.592047
  59         V                 1.541961          2.378129
  60         V                 1.656481          2.512932
  61         V                 1.680647          2.573229
  62         V                 1.704103          2.422233
  63         V                 1.736305          2.614105
  64         V                 1.738851          2.628424
  65         V                 1.833017          2.769222
  66         V                 1.995590          3.009027
  67         V                 2.146548          3.236973
  68         V                 2.193836          3.412538
  69         V                 2.259033          3.159084
  70         V                 2.332192          3.482552
  71         V                 2.373640          3.445441
  72         V                 2.405504          3.293362
  73         V                 2.406988          3.626696
  74         V                 2.495946          3.646624
  75         V                 2.588758          3.607312
  76         V                 2.630052          3.524548
  77         V                 2.637129          3.545654
  78         V                 2.742346          3.752865
  79         V                 2.836997          4.118583
  80         V                 2.865453          3.776631
  81         V                 2.933216          4.270862
  82         V                 2.996587          4.382678
  83         V                 3.102728          4.892523
  84         V                 3.193142          4.291297
  85         V                 3.338485          4.938636
  86         V                 3.401818          4.620926
  87         V                 4.533346         10.153988
  88         V                 4.594961         10.158744
  89         V                 4.611556         10.241018
  90         V                 4.898793         10.229927
  91         V                 4.925554         10.369788
 Total kinetic energy from orbitals= 1.938748479278D+02


 "THE TIME HAS COME", THE WALRUS SAID,
 "TO TALK OF MANY THINGS,
 OF SHOES AND SHIPS AND SEALING WAX,
 OF CABBAGES AND KINGS,
 AND WHY THE SEA IS BOILING HOT,
 AND WHETHER PIGS HAVE WINGS."
 Error termination request processed by link 9999.
 Error termination via Lnk1e in /usr/local/packages/gaussian/g16/l9999.exe at Thu Oct 29 18:33:41 2020.
 Job cpu time:       0 days  0 hours  4 minutes  5.8 seconds.
 Elapsed time:       0 days  0 hours  4 minutes 11.8 seconds.
 File lengths (MBytes):  RWF=     22 Int=      0 D2E=      0 Chk=      3 Scr=      2
