 Entering Gaussian System, Link 0=g16
 Input=formaldehyde.com
 Output=formaldehyde.log
 Initial command:
 /usr/local/packages/gaussian/g16/l1.exe "/scratch/Gau-832.inp" -scrdir="/scratch/"
 Entering Link 1 = /usr/local/packages/gaussian/g16/l1.exe PID=       833.
  
 Copyright (c) 1988,1990,1992,1993,1995,1998,2003,2009,2016,
            Gaussian, Inc.  All Rights Reserved.
  
 This is part of the Gaussian(R) 16 program.  It is based on
 the Gaussian(R) 09 system (copyright 2009, Gaussian, Inc.),
 the Gaussian(R) 03 system (copyright 2003, Gaussian, Inc.),
 the Gaussian(R) 98 system (copyright 1998, Gaussian, Inc.),
 the Gaussian(R) 94 system (copyright 1995, Gaussian, Inc.),
 the Gaussian 92(TM) system (copyright 1992, Gaussian, Inc.),
 the Gaussian 90(TM) system (copyright 1990, Gaussian, Inc.),
 the Gaussian 88(TM) system (copyright 1988, Gaussian, Inc.),
 the Gaussian 86(TM) system (copyright 1986, Carnegie Mellon
 University), and the Gaussian 82(TM) system (copyright 1983,
 Carnegie Mellon University). Gaussian is a federally registered
 trademark of Gaussian, Inc.
  
 This software contains proprietary and confidential information,
 including trade secrets, belonging to Gaussian, Inc.
  
 This software is provided under written license and may be
 used, copied, transmitted, or stored only in accord with that
 written license.
  
 The following legend is applicable only to US Government
 contracts under FAR:
  
                    RESTRICTED RIGHTS LEGEND
  
 Use, reproduction and disclosure by the US Government is
 subject to restrictions as set forth in subparagraphs (a)
 and (c) of the Commercial Computer Software - Restricted
 Rights clause in FAR 52.227-19.
  
 Gaussian, Inc.
 340 Quinnipiac St., Bldg. 40, Wallingford CT 06492
  
  
 ---------------------------------------------------------------
 Warning -- This program may not be used in any manner that
 competes with the business of Gaussian, Inc. or will provide
 assistance to any competitor of Gaussian, Inc.  The licensee
 of this program is prohibited from giving any competitor of
 Gaussian, Inc. access to this program.  By using this program,
 the user acknowledges that Gaussian, Inc. is engaged in the
 business of creating and licensing software in the field of
 computational chemistry and represents and warrants to the
 licensee that it is not a competitor of Gaussian, Inc. and that
 it will not use this program in any manner prohibited above.
 ---------------------------------------------------------------
  

 Cite this work as:
 Gaussian 16, Revision A.03,
 M. J. Frisch, G. W. Trucks, H. B. Schlegel, G. E. Scuseria, 
 M. A. Robb, J. R. Cheeseman, G. Scalmani, V. Barone, 
 G. A. Petersson, H. Nakatsuji, X. Li, M. Caricato, A. V. Marenich, 
 J. Bloino, B. G. Janesko, R. Gomperts, B. Mennucci, H. P. Hratchian, 
 J. V. Ortiz, A. F. Izmaylov, J. L. Sonnenberg, D. Williams-Young, 
 F. Ding, F. Lipparini, F. Egidi, J. Goings, B. Peng, A. Petrone, 
 T. Henderson, D. Ranasinghe, V. G. Zakrzewski, J. Gao, N. Rega, 
 G. Zheng, W. Liang, M. Hada, M. Ehara, K. Toyota, R. Fukuda, 
 J. Hasegawa, M. Ishida, T. Nakajima, Y. Honda, O. Kitao, H. Nakai, 
 T. Vreven, K. Throssell, J. A. Montgomery, Jr., J. E. Peralta, 
 F. Ogliaro, M. J. Bearpark, J. J. Heyd, E. N. Brothers, K. N. Kudin, 
 V. N. Staroverov, T. A. Keith, R. Kobayashi, J. Normand, 
 K. Raghavachari, A. P. Rendell, J. C. Burant, S. S. Iyengar, 
 J. Tomasi, M. Cossi, J. M. Millam, M. Klene, C. Adamo, R. Cammi, 
 J. W. Ochterski, R. L. Martin, K. Morokuma, O. Farkas, 
 J. B. Foresman, and D. J. Fox, Gaussian, Inc., Wallingford CT, 2016.
 
 ******************************************
 Gaussian 16:  ES64L-G16RevA.03 25-Dec-2016
                25-Oct-2020 
 ******************************************
 -------------------
 # RHF/6-31G(d) Freq
 -------------------
 1/10=4,30=1,38=1/1,3;
 2/12=2,17=6,18=5,40=1/2;
 3/5=1,6=6,7=1,11=1,25=1,30=1,71=2,116=1,140=1/1,2,3;
 4//1;
 5/5=2,38=5,98=1/2;
 8/6=4,10=90,11=11/1;
 10/13=10,15=4/2;
 11/6=3,8=1,9=11,15=111,16=1/1,2,10;
 10/6=1/2;
 6/7=2,8=2,9=2,10=2,28=1/1;
 7/8=1,10=1,25=1/1,2,3,16;
 1/10=4,30=1/3;
 99//99;
 ------------------------
 Formaldehyde Frequencies
 ------------------------
 Symbolic Z-matrix:
 Charge =  0 Multiplicity = 1
 O                    -1.17754  -0.02975  -0.13558 
 C                     0.03353   0.00085   0.00386 
 H                     0.67329   0.18724  -0.85167 
 H                     0.47073  -0.15834   0.98339 
 

 GradGradGradGradGradGradGradGradGradGradGradGradGradGradGradGradGradGrad
 Berny optimization.
 Initialization pass.
 Trust Radius=3.00D-01 FncErr=1.00D-07 GrdErr=1.00D-07 EigMax=2.50D+02 EigMin=1.00D-04
 Number of steps in this run=      2 maximum allowed number of steps=      2.
 GradGradGradGradGradGradGradGradGradGradGradGradGradGradGradGradGradGrad

                          Input orientation:                          
 ---------------------------------------------------------------------
 Center     Atomic      Atomic             Coordinates (Angstroms)
 Number     Number       Type             X           Y           Z
 ---------------------------------------------------------------------
      1          8           0       -1.177542   -0.029748   -0.135583
      2          6           0        0.033527    0.000847    0.003860
      3          1           0        0.673286    0.187242   -0.851666
      4          1           0        0.470728   -0.158340    0.983387
 ---------------------------------------------------------------------
                    Distance matrix (angstroms):
                    1          2          3          4
     1  O    0.000000
     2  C    1.219455   0.000000
     3  H    1.996353   1.084416   0.000000
     4  H    1.996353   1.084416   1.878264   0.000000
 Stoichiometry    CH2O
 Framework group  C2[C2(CO),X(H2)]
 Deg. of freedom     3
 Full point group                 C2      NOp   2
 Largest Abelian subgroup         C2      NOp   2
 Largest concise Abelian subgroup C2      NOp   2
                         Standard orientation:                         
 ---------------------------------------------------------------------
 Center     Atomic      Atomic             Coordinates (Angstroms)
 Number     Number       Type             X           Y           Z
 ---------------------------------------------------------------------
      1          8           0        0.000000    0.000000    0.677503
      2          6           0       -0.000000   -0.000000   -0.541951
      3          1           0       -0.936511    0.070115   -1.084159
      4          1           0        0.936511   -0.070115   -1.084159
 ---------------------------------------------------------------------
 Rotational constants (GHZ):         284.2816676          38.6320939          34.0103067
 Standard basis: 6-31G(d) (6D, 7F)
 There are    20 symmetry adapted cartesian basis functions of A   symmetry.
 There are    14 symmetry adapted cartesian basis functions of B   symmetry.
 There are    20 symmetry adapted basis functions of A   symmetry.
 There are    14 symmetry adapted basis functions of B   symmetry.
    34 basis functions,    64 primitive gaussians,    34 cartesian basis functions
     8 alpha electrons        8 beta electrons
       nuclear repulsion energy        31.2080878841 Hartrees.
 NAtoms=    4 NActive=    4 NUniq=    3 SFac= 1.78D+00 NAtFMM=   60 NAOKFM=F Big=F
 Integral buffers will be    131072 words long.
 Raffenetti 1 integral format.
 Two-electron integral symmetry is turned on.
 One-electron integrals computed using PRISM.
 NBasis=    34 RedAO= T EigKep=  9.13D-03  NBF=    20    14
 NBsUse=    34 1.00D-06 EigRej= -1.00D+00 NBFU=    20    14
 ExpMin= 1.61D-01 ExpMax= 5.48D+03 ExpMxC= 8.25D+02 IAcc=3 IRadAn=         5 AccDes= 0.00D+00
 Harris functional with IExCor=  205 and IRadAn=       5 diagonalized for initial guess.
 HarFok:  IExCor=  205 AccDes= 0.00D+00 IRadAn=         5 IDoV= 1 UseB2=F ITyADJ=14
 ICtDFT=  3500011 ScaDFX=  1.000000  1.000000  1.000000  1.000000
 FoFCou: FMM=F IPFlag=           0 FMFlag=      100000 FMFlg1=           0
         NFxFlg=           0 DoJE=T BraDBF=F KetDBF=T FulRan=T
         wScrn=  0.000000 ICntrl=       500 IOpCl=  0 I1Cent=   200000004 NGrid=           0
         NMat0=    1 NMatS0=      1 NMatT0=    0 NMatD0=    1 NMtDS0=    0 NMtDT0=    0
 Petite list used in FoFCou.
 Initial guess orbital symmetries:
       Occupied  (A) (A) (A) (A) (B) (A) (B) (B)
       Virtual   (B) (A) (B) (A) (B) (A) (B) (A) (A) (B) (A) (B)
                 (B) (A) (B) (A) (A) (B) (A) (A) (A) (B) (B) (A)
                 (A) (A)
 The electronic state of the initial guess is 1-A.
 Keep R1 ints in memory in symmetry-blocked form, NReq=1009796.
 Requested convergence on RMS density matrix=1.00D-08 within 128 cycles.
 Requested convergence on MAX density matrix=1.00D-06.
 Requested convergence on             energy=1.00D-06.
 No special actions if energy rises.
 SCF Done:  E(RHF) =  -113.863819945     A.U. after   11 cycles
            NFock= 11  Conv=0.40D-08     -V/T= 2.0031
 Range of M.O.s used for correlation:     1    34
 NBasis=    34 NAE=     8 NBE=     8 NFC=     0 NFV=     0
 NROrb=     34 NOA=     8 NOB=     8 NVA=    26 NVB=    26
          Differentiating once with respect to electric field.
                with respect to dipole field.
          Electric field/nuclear overlap derivatives assumed to be zero.
 Keep R1 ints in memory in symmetry-blocked form, NReq=1010189.
          There are     3 degrees of freedom in the 1st order CPHF.  IDoFFX=0 NUNeed=     3.
      3 vectors produced by pass  0 Test12= 6.93D-15 3.33D-08 XBig12= 5.04D+00 1.68D+00.
 AX will form     3 AO Fock derivatives at one time.
      3 vectors produced by pass  1 Test12= 6.93D-15 3.33D-08 XBig12= 6.15D-01 3.26D-01.
      3 vectors produced by pass  2 Test12= 6.93D-15 3.33D-08 XBig12= 5.70D-02 1.15D-01.
      3 vectors produced by pass  3 Test12= 6.93D-15 3.33D-08 XBig12= 1.91D-03 1.64D-02.
      3 vectors produced by pass  4 Test12= 6.93D-15 3.33D-08 XBig12= 3.63D-05 3.34D-03.
      3 vectors produced by pass  5 Test12= 6.93D-15 3.33D-08 XBig12= 2.28D-06 6.74D-04.
      3 vectors produced by pass  6 Test12= 6.93D-15 3.33D-08 XBig12= 3.00D-08 6.39D-05.
      3 vectors produced by pass  7 Test12= 6.93D-15 3.33D-08 XBig12= 4.65D-10 8.63D-06.
      1 vectors produced by pass  8 Test12= 6.93D-15 3.33D-08 XBig12= 4.92D-12 8.92D-07.
      1 vectors produced by pass  9 Test12= 6.93D-15 3.33D-08 XBig12= 9.07D-14 1.13D-07.
 InvSVY:  IOpt=1 It=  1 EMax= 8.88D-16
 Solved reduced A of dimension    26 with     3 vectors.
 End of Minotr F.D. properties file   721 does not exist.
 End of Minotr F.D. properties file   722 does not exist.
 End of Minotr F.D. properties file   788 does not exist.
 Symmetrizing basis deriv contribution to polar:
 IMax=3 JMax=2 DiffMx= 0.00D+00
 G2DrvN: will do     5 centers at a time, making    1 passes.
 PxScal for G2LodP:  IOpCl= 0 ISclPx=1 IMOff=     1 NMtTot=     4 NTT=     595 ScalPx= 1.49D+00
 Calling FoFCou, ICntrl=  3107 FMM=F I1Cent=   0 AccDes= 0.00D+00.
 End of G2Drv F.D. properties file   721 does not exist.
 End of G2Drv F.D. properties file   722 does not exist.
 End of G2Drv F.D. properties file   788 does not exist.
          IDoAtm=1111
          Differentiating once with respect to electric field.
                with respect to dipole field.
          Differentiating once with respect to nuclear coordinates.
 Keep R1 ints in memory in symmetry-blocked form, NReq=1010281.
          There are    12 degrees of freedom in the 1st order CPHF.  IDoFFX=4 NUNeed=    12.
 Will reuse    3 saved solutions.
      9 vectors produced by pass  0 Test12= 1.73D-15 8.33D-09 XBig12= 5.01D-02 1.05D-01.
 AX will form     9 AO Fock derivatives at one time.
      9 vectors produced by pass  1 Test12= 1.73D-15 8.33D-09 XBig12= 6.32D-03 3.98D-02.
      9 vectors produced by pass  2 Test12= 1.73D-15 8.33D-09 XBig12= 1.68D-04 4.52D-03.
      9 vectors produced by pass  3 Test12= 1.73D-15 8.33D-09 XBig12= 1.82D-06 4.49D-04.
      9 vectors produced by pass  4 Test12= 1.73D-15 8.33D-09 XBig12= 1.01D-08 4.27D-05.
      9 vectors produced by pass  5 Test12= 1.73D-15 8.33D-09 XBig12= 3.44D-11 2.07D-06.
      7 vectors produced by pass  6 Test12= 1.73D-15 8.33D-09 XBig12= 1.89D-13 1.10D-07.
      1 vectors produced by pass  7 Test12= 1.73D-15 8.33D-09 XBig12= 8.65D-16 9.97D-09.
 InvSVY:  IOpt=1 It=  1 EMax= 6.66D-16
 Solved reduced A of dimension    62 with     9 vectors.
 Isotropic polarizability for W=    0.000000       12.44 Bohr**3.
 End of Minotr F.D. properties file   721 does not exist.
 End of Minotr F.D. properties file   722 does not exist.
 End of Minotr F.D. properties file   788 does not exist.

 **********************************************************************

            Population analysis using the SCF density.

 **********************************************************************

 Orbital symmetries:
       Occupied  (A) (A) (A) (A) (B) (A) (B) (B)
       Virtual   (B) (A) (B) (A) (B) (A) (B) (A) (A) (B) (A) (B)
                 (B) (A) (A) (B) (A) (B) (A) (A) (A) (B) (B) (A)
                 (A) (A)
 The electronic state is 1-A.
 Alpha  occ. eigenvalues --  -20.58216 -11.33935  -1.39276  -0.87259  -0.69678
 Alpha  occ. eigenvalues --   -0.63954  -0.52323  -0.44037
 Alpha virt. eigenvalues --    0.13588   0.24840   0.33350   0.37335   0.73655
 Alpha virt. eigenvalues --    0.80867   0.84591   0.94773   1.10437   1.10612
 Alpha virt. eigenvalues --    1.13946   1.27151   1.33540   1.62080   1.78191
 Alpha virt. eigenvalues --    1.79449   1.99192   2.18370   2.23725   2.45523
 Alpha virt. eigenvalues --    2.64449   2.87229   2.97825   3.27657   4.09839
 Alpha virt. eigenvalues --    4.47646
          Condensed to atoms (all electrons):
               1          2          3          4
     1  O    8.023844   0.522601  -0.053227  -0.053227
     2  C    0.522601   4.596689   0.375494   0.375494
     3  H   -0.053227   0.375494   0.586648  -0.064051
     4  H   -0.053227   0.375494  -0.064051   0.586648
 Mulliken charges:
               1
     1  O   -0.439992
     2  C    0.129720
     3  H    0.155136
     4  H    0.155136
 Sum of Mulliken charges =  -0.00000
 Mulliken charges with hydrogens summed into heavy atoms:
               1
     1  O   -0.439992
     2  C    0.439992
 APT charges:
               1
     1  O   -0.649351
     2  C    0.719797
     3  H   -0.035223
     4  H   -0.035223
 Sum of APT charges =  -0.00000
 APT charges with hydrogens summed into heavy atoms:
               1
     1  O   -0.649351
     2  C    0.649351
 Electronic spatial extent (au):  <R**2>=             59.9379
 Charge=             -0.0000 electrons
 Dipole moment (field-independent basis, Debye):
    X=              0.0000    Y=             -0.0000    Z=             -2.8425  Tot=              2.8425
 Quadrupole moment (field-independent basis, Debye-Ang):
   XX=            -11.3198   YY=            -11.5353   ZZ=            -11.8972
   XY=             -0.0162   XZ=             -0.0000   YZ=              0.0000
 Traceless Quadrupole moment (field-independent basis, Debye-Ang):
   XX=              0.2643   YY=              0.0488   ZZ=             -0.3131
   XY=             -0.0162   XZ=             -0.0000   YZ=              0.0000
 Octapole moment (field-independent basis, Debye-Ang**2):
  XXX=              0.0000  YYY=              0.0000  ZZZ=              0.1523  XYY=             -0.0000
  XXY=             -0.0000  XXZ=             -0.5573  XZZ=              0.0000  YZZ=             -0.0000
  YYZ=              0.5532  XYZ=              0.0836
 Hexadecapole moment (field-independent basis, Debye-Ang**3):
 XXXX=            -16.7853 YYYY=             -9.4833 ZZZZ=            -43.4505 XXXY=              0.2125
 XXXZ=             -0.0000 YYYX=              0.3373 YYYZ=             -0.0000 ZZZX=             -0.0000
 ZZZY=             -0.0000 XXYY=             -4.6482 XXZZ=             -9.5552 YYZZ=             -8.7961
 XXYZ=              0.0000 YYXZ=              0.0000 ZZXY=              0.0572
 N-N= 3.120808788406D+01 E-N=-3.306854795713D+02  KE= 1.135152304949D+02
 Symmetry A    KE= 1.033192724941D+02
 Symmetry B    KE= 1.019595800080D+01
  Exact polarizability:  12.655  -0.455   6.609  -0.000   0.000  18.062
 Approx polarizability:   9.985  -0.272   6.374  -0.000   0.000  16.717
 Calling FoFJK, ICntrl=    100127 FMM=F ISym2X=1 I1Cent= 0 IOpClX= 0 NMat=1 NMatS=1 NMatT=0.
 Full mass-weighted force constant matrix:
 Low frequencies ---    0.0011    0.0013    0.0023  146.9777  251.1665  259.0451
 Low frequencies --- 1307.1885 1369.5876 1626.3129
 Diagonal vibrational polarizability:
        0.4722385       0.0293836       1.2220009
 Diagonal vibrational hyperpolarizability:
       -0.0000000       0.0000000     -11.8817263
 Harmonic frequencies (cm**-1), IR intensities (KM/Mole), Raman scattering
 activities (A**4/AMU), depolarization ratios for plane and unpolarized
 incident light, reduced masses (AMU), force constants (mDyne/A),
 and normal coordinates:
                      1                      2                      3
                      B                      B                      A
 Frequencies --   1305.8945              1369.1122              1626.3129
 Red. masses --      1.3445                 1.3173                 1.2172
 Frc consts  --      1.3509                 1.4549                 1.8968
 IR Inten    --      1.7038                18.1057                25.9795
 Raman Activ --      0.2525                 5.1418                15.3784
 Depolar (P) --      0.7500                 0.7500                 0.5609
 Depolar (U) --      0.8571                 0.8571                 0.7187
  Atom  AN      X      Y      Z        X      Y      Z        X      Y      Z
     1   8     0.00   0.04  -0.00    -0.08   0.01  -0.00     0.00  -0.00  -0.11
     2   6    -0.01  -0.17   0.00     0.14  -0.01  -0.00    -0.00   0.00   0.04
     3   1     0.05   0.69   0.00    -0.23   0.02   0.66    -0.32   0.02   0.62
     4   1     0.05   0.69  -0.00    -0.23   0.02  -0.66     0.32  -0.02   0.62
                      4                      5                      6
                      A                      A                      B
 Frequencies --   1830.8557              3218.1909              3331.2224
 Red. masses --      4.6143                 1.0430                 1.1243
 Frc consts  --      9.1130                 6.3646                 7.3512
 IR Inten    --    108.9855                31.8247                88.5731
 Raman Activ --      6.9608               130.5434                48.9831
 Depolar (P) --      0.2704                 0.1898                 0.7500
 Depolar (U) --      0.4257                 0.3190                 0.8571
  Atom  AN      X      Y      Z        X      Y      Z        X      Y      Z
     1   8    -0.00   0.00  -0.30     0.00   0.00  -0.00     0.00  -0.00   0.00
     2   6     0.00   0.00   0.46     0.00  -0.00  -0.06    -0.10   0.01  -0.00
     3   1     0.46  -0.03  -0.38     0.62  -0.05   0.34     0.61  -0.05   0.35
     4   1    -0.46   0.03  -0.38    -0.62   0.05   0.34     0.61  -0.05  -0.35

 -------------------
 - Thermochemistry -
 -------------------
 Temperature   298.150 Kelvin.  Pressure   1.00000 Atm.
 Atom     1 has atomic number  8 and mass  15.99491
 Atom     2 has atomic number  6 and mass  12.00000
 Atom     3 has atomic number  1 and mass   1.00783
 Atom     4 has atomic number  1 and mass   1.00783
 Molecular mass:    30.01056 amu.
 Principal axes and moments of inertia in atomic units:
                           1         2         3
     Eigenvalues --     6.34843  46.71611  53.06454
           X           -0.00000   0.99721   0.07466
           Y            0.00000  -0.07466   0.99721
           Z            1.00000   0.00000  -0.00000
 This molecule is an asymmetric top.
 Rotational symmetry number  2.
 Rotational temperatures (Kelvin)     13.64337     1.85405     1.63224
 Rotational constants (GHZ):         284.28167    38.63209    34.01031
 Zero-point vibrational energy      75852.7 (Joules/Mol)
                                   18.12924 (Kcal/Mol)
 Vibrational temperatures:   1878.89  1969.85  2339.90  2634.19  4630.26
          (Kelvin)           4792.89
 
 Zero-point correction=                           0.028891 (Hartree/Particle)
 Thermal correction to Energy=                    0.031747
 Thermal correction to Enthalpy=                  0.032691
 Thermal correction to Gibbs Free Energy=         0.007882
 Sum of electronic and zero-point Energies=           -113.834929
 Sum of electronic and thermal Energies=              -113.832073
 Sum of electronic and thermal Enthalpies=            -113.831129
 Sum of electronic and thermal Free Energies=         -113.855938
 
                     E (Thermal)             CV                S
                      KCal/Mol        Cal/Mol-Kelvin    Cal/Mol-Kelvin
 Total                   19.921              6.295             52.215
 Electronic               0.000              0.000              0.000
 Translational            0.889              2.981             36.130
 Rotational               0.889              2.981             16.027
 Vibrational             18.144              0.333              0.057
                       Q            Log10(Q)             Ln(Q)
 Total Bot       0.236832D-03         -3.625560         -8.348161
 Total V=0       0.460539D+10          9.663266         22.250493
 Vib (Bot)       0.516167D-13        -13.287210        -30.594931
 Vib (V=0)       0.100373D+01          0.001617          0.003723
 Electronic      0.100000D+01          0.000000          0.000000
 Translational   0.646197D+07          6.810365         15.681445
 Rotational      0.710042D+03          2.851284          6.565324
 ***** Axes restored to original set *****
 -------------------------------------------------------------------
 Center     Atomic                   Forces (Hartrees/Bohr)
 Number     Number              X              Y              Z
 -------------------------------------------------------------------
      1        8           0.058808692    0.001485660    0.006771236
      2        6          -0.070291623   -0.001775748   -0.008093381
      3        1           0.005583779   -0.000123984    0.002089618
      4        1           0.005899152    0.000414072   -0.000767473
 -------------------------------------------------------------------
 Cartesian Forces:  Max     0.070291623 RMS     0.026750714

 GradGradGradGradGradGradGradGradGradGradGradGradGradGradGradGradGradGrad
 Berny optimization.
 Search for a local minimum.
 Step number   1 out of a maximum of    2
 All quantities printed in internal units (Hartrees-Bohrs-Radians)
 Second derivative matrix not updated -- analytic derivatives used.
 The second derivative matrix:
                          X1        Y1        Z1        X2        Y2
           X1           0.86647
           Y1           0.02192   0.04856
           Z1           0.08797  -0.00857   0.11500
           X2          -0.77989  -0.01840  -0.07375   1.01971
           Y2          -0.01840  -0.09377   0.00727   0.03026   0.24677
           Z2          -0.07375   0.00727  -0.14993   0.03502  -0.09220
           X3          -0.04933  -0.00952   0.03372  -0.14208  -0.02510
           Y3          -0.00446   0.02234   0.00139  -0.02516  -0.07746
           Z3           0.00608   0.00011   0.02376   0.11871   0.04283
           X4          -0.03725   0.00600  -0.04794  -0.09773   0.01323
           Y4           0.00094   0.02286  -0.00009   0.01329  -0.07555
           Z4          -0.02031   0.00119   0.01116  -0.07998   0.04210
                          Z2        X3        Y3        Z3        X4
           Z2           0.74062
           X3           0.11838   0.18061
           Y3           0.04282   0.03318   0.03403
           Z3          -0.27221  -0.14126  -0.05054   0.26336
           X4          -0.07964   0.01080  -0.00356   0.01647   0.12417
           Y4           0.04211   0.00145   0.02108   0.00760  -0.01568
           Z4          -0.31847  -0.01083   0.00634  -0.01492   0.11111
                          Y4        Z4
           Y4           0.03160
           Z4          -0.04963   0.32223
 ITU=  0
     Eigenvalues ---    0.14059   0.17339   0.23875   0.43432   0.92763
     Eigenvalues ---    1.75268
 Angle between quadratic step and forces=  43.33 degrees.
 ClnCor:  largest displacement from symmetrization is 4.21D-14 for atom     4.
 Linear search not attempted -- first point.
 ClnCor:  largest displacement from symmetrization is 2.28D-15 for atom     3.
 B after Tr=    -0.007133   -0.000180   -0.000821
         Rot=    1.000000    0.000000    0.000000    0.000000 Ang=   0.00 deg.
 Variable       Old X    -DE/DX   Delta X   Delta X   Delta X     New X
                                 (Linear)    (Quad)   (Total)
    X1       -2.22523   0.05881   0.00000   0.02395   0.01682  -2.20841
    Y1       -0.05622   0.00149   0.00000   0.00061   0.00042  -0.05579
    Z1       -0.25621   0.00677   0.00000   0.00276   0.00194  -0.25428
    X2        0.06336  -0.07029   0.00000  -0.04990  -0.05703   0.00632
    Y2        0.00160  -0.00178   0.00000  -0.00126  -0.00144   0.00016
    Z2        0.00729  -0.00809   0.00000  -0.00575  -0.00657   0.00073
    X3        1.27233   0.00558   0.00000   0.02402   0.01689   1.28921
    Y3        0.35384  -0.00012   0.00000  -0.00480  -0.00498   0.34885
    Z3       -1.60941   0.00209   0.00000   0.03230   0.03147  -1.57794
    X4        0.88955   0.00590   0.00000   0.03046   0.02332   0.91287
    Y4       -0.29922   0.00041   0.00000   0.00618   0.00600  -0.29322
    Z4        1.85833  -0.00077   0.00000  -0.02602  -0.02684   1.83149
         Item               Value     Threshold  Converged?
 Maximum Force            0.070292     0.000450     NO 
 RMS     Force            0.026751     0.000300     NO 
 Maximum Displacement     0.057034     0.001800     NO 
 RMS     Displacement     0.022705     0.001200     NO 
 Predicted change in Energy=-2.694532D-03
 GradGradGradGradGradGradGradGradGradGradGradGradGradGradGradGradGradGrad


 ----------------------------------------------------------------------

 Electric dipole moment (input orientation):
 (Debye = 10**-18 statcoulomb cm , SI units = C m)
                  (au)            (Debye)         (10**-30 SI)
   Tot        0.111831D+01      0.284246D+01      0.948143D+01
   x          0.111062D+01      0.282292D+01      0.941623D+01
   y          0.280571D-01      0.713142D-01      0.237878D+00
   z          0.127877D+00      0.325031D+00      0.108419D+01

 Dipole polarizability, Alpha (input orientation).
 (esu units = cm**3 , SI units = C**2 m**2 J**-1)
 Alpha(0;0):
               (au)            (10**-24 esu)      (10**-40 SI)
   iso        0.124417D+02      0.184367D+01      0.205136D+01
   aniso      0.995476D+01      0.147514D+01      0.164132D+01
   xx         0.179753D+02      0.266366D+01      0.296372D+01
   yx         0.407522D+00      0.603885D-01      0.671913D-01
   yy         0.678900D+01      0.100603D+01      0.111935D+01
   zx         0.660291D+00      0.978451D-01      0.108867D+00
   zy        -0.106607D+01     -0.157975D+00     -0.175771D+00
   zz         0.125608D+02      0.186132D+01      0.207100D+01

 First dipole hyperpolarizability, Beta (input orientation).
 ||, _|_  parallel and perpendicular components, (z) with respect to z axis,
 vector components x,y,z.  Values do not include the 1/n! factor of 1/2.
 (esu units = statvolt**-1 cm**4 , SI units = C**3 m**3 J**-2)
 Beta(0;0,0):
               (au)            (10**-30 esu)      (10**-50 SI)
   || (z)     0.537118D+01      0.464028D-01      0.172219D-01
   _|_(z)     0.179039D+01      0.154676D-01      0.574065D-02
   x          0.233245D+03      0.201506D+01      0.747869D+00
   y          0.589238D+01      0.509056D-01      0.188931D-01
   z          0.268559D+02      0.232014D+00      0.861097D-01
   ||         0.469721D+02      0.405802D+00      0.150609D+00
   xxx        0.392379D+02      0.338985D+00      0.125811D+00
   xxy        0.200450D+01      0.173173D-01      0.642716D-02
   yxy        0.514765D+01      0.444717D-01      0.165052D-01
   yyy        0.386924D+00      0.334272D-02      0.124062D-02
   xxz       -0.306010D+01     -0.264369D-01     -0.981178D-02
   yxz       -0.553457D+01     -0.478144D-01     -0.177458D-01
   yyz        0.306241D+00      0.264568D-02      0.981918D-03
   zxz        0.333629D+02      0.288230D+00      0.106974D+00
   zyz       -0.427300D+00     -0.369154D-02     -0.137008D-02
   zzz        0.117058D+02      0.101129D+00      0.375331D-01

 ----------------------------------------------------------------------

 Dipole orientation:
     8          0.00000044         -0.00000025         -2.24063955
     6          0.00000044         -0.00000025          0.06379591
     1          1.73664365          0.36556511          1.08842075
     1         -1.73664276         -0.36556562          1.08842075

 Electric dipole moment (dipole orientation):
 (Debye = 10**-18 statcoulomb cm , SI units = C m)
                  (au)            (Debye)         (10**-30 SI)
   Tot        0.111831D+01      0.284246D+01      0.948143D+01
   x          0.000000D+00      0.000000D+00      0.000000D+00
   y          0.000000D+00      0.000000D+00      0.000000D+00
   z          0.111831D+01      0.284246D+01      0.948143D+01

 Dipole polarizability, Alpha (dipole orientation).
 (esu units = cm**3 , SI units = C**2 m**2 J**-1)
 Alpha(0;0):
               (au)            (10**-24 esu)      (10**-40 SI)
   iso        0.124417D+02      0.184367D+01      0.205136D+01
   aniso      0.995476D+01      0.147514D+01      0.164132D+01
   xx         0.124293D+02      0.184183D+01      0.204931D+01
   yx         0.123238D+01      0.182619D+00      0.203191D+00
   yy         0.683422D+01      0.101273D+01      0.112681D+01
   zx         0.000000D+00      0.000000D+00      0.000000D+00
   zy         0.000000D+00      0.000000D+00      0.000000D+00
   zz         0.180616D+02      0.267645D+01      0.297796D+01

 First dipole hyperpolarizability, Beta (dipole orientation).
 ||, _|_  parallel and perpendicular components, (z) with respect to z axis,
 vector components x,y,z.  Values do not include the 1/n! factor of 1/2.
 (esu units = statvolt**-1 cm**4 , SI units = C**3 m**3 J**-2)
 Beta(0;0,0):
               (au)            (10**-30 esu)      (10**-50 SI)
   || (z)     0.469721D+02      0.405802D+00      0.150609D+00
   _|_(z)     0.156574D+02      0.135267D+00      0.502031D-01
   x          0.000000D+00      0.000000D+00      0.000000D+00
   y          0.000000D+00      0.000000D+00      0.000000D+00
   z          0.234860D+03      0.202901D+01      0.753047D+00
   ||         0.469721D+02      0.405802D+00      0.150609D+00
   xxx        0.000000D+00      0.000000D+00      0.000000D+00
   xxy        0.000000D+00      0.000000D+00      0.000000D+00
   yxy        0.000000D+00      0.000000D+00      0.000000D+00
   yyy        0.000000D+00      0.000000D+00      0.000000D+00
   xxz        0.341032D+02      0.294625D+00      0.109347D+00
   yxz        0.632129D+01      0.546110D-01      0.202683D-01
   yyz        0.540415D+01      0.466876D-01      0.173277D-01
   zxz        0.000000D+00      0.000000D+00      0.000000D+00
   zyz        0.000000D+00      0.000000D+00      0.000000D+00
   zzz        0.387794D+02      0.335024D+00      0.124341D+00

 ----------------------------------------------------------------------
 1\1\GINC-CNODE02\Freq\RHF\6-31G(d)\C1H2O1\TNGUYEN38\25-Oct-2020\0\\# R
 HF/6-31G(d) Freq\\Formaldehyde Frequencies\\0,1\O,-1.1775423541,-0.029
 7479048,-0.1355825153\C,0.0335272375,0.0008468447,0.0038600939\H,0.673
 2859235,0.1872415494,-0.8516656206\H,0.4707281911,-0.1583410746,0.9833
 869913\\Version=ES64L-G16RevA.03\State=1-A\HF=-113.8638199\RMSD=4.028e
 -09\RMSF=2.675e-02\ZeroPoint=0.0288908\Thermal=0.0317468\Dipole=1.1106
 206,0.0280571,0.1278769\DipoleDeriv=-0.9920615,-0.0168518,-0.0537971,-
 0.0168518,-0.4202728,0.0194523,-0.0537971,0.0194523,-0.5357173,1.04902
 82,0.0313984,0.0282822,0.0313984,0.2802891,-0.1031416,0.0282822,-0.103
 1416,0.8300752,-0.0440747,-0.0183011,0.069006,-0.0232397,0.0693199,0.0
 414726,0.0959624,0.0427222,-0.1309155,-0.012892,0.0037546,-0.0434911,0
 .0086932,0.0706639,0.0422167,-0.0704475,0.0409671,-0.1634423\Polar=17.
 9752795,0.407522,6.7889997,0.6602914,-1.0660665,12.5608224\PolarDeriv=
 -12.0498105,-0.084339,-1.0150972,-1.2215622,-0.6742034,2.3554374,-0.06
 68985,-4.2433322,-0.240083,-0.1173769,-0.5082408,0.0364325,-0.5264463,
 -0.1018246,-0.1220819,-3.8072805,-0.1833667,-0.5845607,6.300154,-0.217
 8865,0.7296011,1.8295823,1.6895313,-7.7858372,-0.1747284,2.5398595,0.1
 472496,0.9175162,0.3587376,0.0083782,1.1727461,0.8959536,0.1302566,-1.
 907049,0.2457815,-1.390058,3.5815073,0.6477725,0.2094843,-2.8949432,-0
 .5717849,2.8820861,0.3610372,1.0570942,0.7798366,-0.466391,-1.7121568,
 0.6081941,-1.5495668,-0.4585502,-0.530671,3.1751659,0.837274,-5.778262
 7,2.1681492,-0.345547,0.0760118,2.2869231,-0.4435431,2.5483137,-0.1194
 103,0.6463785,-0.6870033,-0.3337483,1.86166,-0.6530049,0.903267,-0.335
 5788,0.5224963,2.5391635,-0.8996888,7.7528815\HyperPolar=39.2379128,2.
 0045036,5.1476524,0.3869238,-3.0600972,-5.5345747,0.3062407,33.3629057
 ,-0.4273,11.705819\Quadrupole=-0.2271997,0.0406805,0.1865193,-0.003465
 6,-0.0475205,-0.0298954\PG=C02 [C2(C1O1),X(H2)]\NImag=0\\0.86646648,0.
 02191888,0.04856088,0.08796980,-0.00856866,0.11500476,-0.77989302,-0.0
 1839679,-0.07374857,1.01970888,-0.01839679,-0.09376732,0.00727138,0.03
 026379,0.24677370,-0.07374857,0.00727138,-0.14993271,0.03501642,-0.092
 20322,0.74061501,-0.04932694,-0.00952141,0.03371974,-0.14208440,-0.025
 10068,0.11837564,0.18060732,-0.00445843,0.02234289,0.00138711,-0.02516
 170,-0.07745900,0.04281773,0.03317577,0.03403161,0.00608427,0.00010602
 ,0.02376452,0.11870869,0.04283317,-0.27220887,-0.14126408,-0.05054155,
 0.26336264,-0.03724652,0.00599933,-0.04794097,-0.09773147,0.01323368,-
 0.07964349,0.01080401,-0.00355564,0.01647113,0.12417397,0.00093635,0.0
 2286356,-0.00008983,0.01329470,-0.07554738,0.04211411,0.00144633,0.021
 08451,0.00760237,-0.01567737,0.03159931,-0.02030550,0.00119126,0.01116
 343,-0.07997655,0.04209867,-0.31847343,-0.01083130,0.00633671,-0.01491
 829,0.11111334,-0.04962665,0.32222829\\-0.05880869,-0.00148566,-0.0067
 7124,0.07029162,0.00177575,0.00809338,-0.00558378,0.00012398,-0.002089
 62,-0.00589915,-0.00041407,0.00076747\\\@


 This summer one third of the nation will be ill-housed
 ill-nourished and ill-clad. Only they call it a vacation.
 -- Jonas Salk
 Job cpu time:       0 days  0 hours  0 minutes  2.3 seconds.
 Elapsed time:       0 days  0 hours  0 minutes  4.2 seconds.
 File lengths (MBytes):  RWF=     17 Int=      0 D2E=      0 Chk=      2 Scr=      2
 Normal termination of Gaussian 16 at Sun Oct 25 19:01:04 2020.
